Structure: Image,SMILES,Substance Identification: Reaxys Registry Number,Links to Reaxys,Data Count,CAS Registry Number,Chemical Name,Linear Structure Formula,Molecular Formula,Molecular Weight,Type of Substance,Type and Modification,InChI Key,Composition: Comp. Name,Composition: Comp. Conc.,Composition: Comp. Attrib.,Field Availability,Number of Reactions,Number of References,Melting Point: Melting Point [C],Solvent (Melting Point),Location,Comment (Melting Point),Crystallizes With,Amount (Melting Point) [mol],References,Links to Reaxys.1
,CC(C)OC=C,1734236.0,https://www.reaxys.com/reaxys/secured/hopinto.do?context=S&query=IDE.XRN%3D1734236&database=RX&origin=ReaxysOutput&ln=,(1467 of 4000),926-65-8,vinyl isopropyl ether; iso-propyl vinyl ether,CH2CHOCH(CH3)2,C5H10O,86.1338,acyclic,,GNUGVECARVKIPH-UHFFFAOYSA-N,,,,Identification(56); Physical Data(50); Spectra(45),138.0,231.0,-126.6,,,,,,"Article; Rowlands et al.; Journal of Organic Chemistry; vol. 17; (1952); p. 807,808;",https://www.reaxys.com/reaxys/secured/hopinto.do?context=C&query=CNR.CNR%3D1510013&database=RX&origin=ReaxysOutput&ln=
,COCC(C)=C,1735637.0,https://www.reaxys.com/reaxys/secured/hopinto.do?context=S&query=IDE.XRN%3D1735637&database=RX&origin=ReaxysOutput&ln=,(1468 of 4000),22418-49-1,methallyl methyl ether; 3-methoxy-2-methylprop-1-ene,C5H10O,C5H10O,86.1338,acyclic,,IFUHHVOEHBXDPB-UHFFFAOYSA-N,,,,Identification(10); Physical Data(19); Spectra(11),60.0,49.0,-113.09,,,,,,Article; Olson et al.; Journal of the American Chemical Society; vol. 69; (1947); p. 2453;,https://www.reaxys.com/reaxys/secured/hopinto.do?context=C&query=CNR.CNR%3D1358380&database=RX&origin=ReaxysOutput&ln=
,CC(O)C1CC1,1839704.0,https://www.reaxys.com/reaxys/secured/hopinto.do?context=S&query=IDE.XRN%3D1839704&database=RX&origin=ReaxysOutput&ln=,(1469 of 4000),765-42-4,1-cyclopropylethanol; cyclopropyl methyl carbinol; 1-cyclopropylethan-1-ol; Methyl-cyclopropyl-carbinol; 1-cyclopropyl-1-ethanol; (+/-)-α-cyclopropylethanol; Methyl-cyclopropyl-carbinol-X-14C; <1-Hydroxy-ethyl>-cyclopropan; α-methylcyclopropanemethanol; 1-Hydroxy-1-cyclopropyl-ethan,HOCH(CH3)C3H5,C5H10O,86.1338,isocyclic,,DKKVKJZXOBFLRY-UHFFFAOYSA-N,,,,Identification(99); Physical Data(63); Spectra(31); Bioactivity(15),248.0,264.0,-32.1,,,,,,Article; Van Volkenburgh et al.; Journal of the American Chemical Society; vol. 71; (1949); p. 3595;,https://www.reaxys.com/reaxys/secured/hopinto.do?context=C&query=CNR.CNR%3D1798566&database=RX&origin=ReaxysOutput&ln=
,CC1(O)CCC1,1847010.0,https://www.reaxys.com/reaxys/secured/hopinto.do?context=S&query=IDE.XRN%3D1847010&database=RX&origin=ReaxysOutput&ln=,(1470 of 4000),20117-47-9,1-methylcyclobutanol; 1-Methylcyclobutanol-(1); 1-methylcyclobutan-1-ol,HOC5H9,C5H10O,86.1338,isocyclic,,DQWVUKFABWSFJD-UHFFFAOYSA-N,,,,Identification(28); Physical Data(23); Spectra(23),94.0,78.0,-5,,,,,,Article; Demjanow; Dojarenko; Zhurnal Russkago Fiziko-Khimicheskago Obshchestva; vol. 45; (1913); p. 176; Chemisches Zentralblatt; vol. 84; I; (1913); p. 2027;,https://www.reaxys.com/reaxys/secured/hopinto.do?context=C&query=CNR.CNR%3D1528015&database=RX&origin=ReaxysOutput&ln=
,OC1CCCC1,1900556.0,https://www.reaxys.com/reaxys/secured/hopinto.do?context=S&query=IDE.XRN%3D1900556&database=RX&origin=ReaxysOutput&ln=,(1471 of 4000),96-41-3,Cyclopentanol,(CH2)4CHOH,C5H10O,86.1338,isocyclic,,XCIXKGXIYUWCLL-UHFFFAOYSA-N,,,,Identification(1085); Physical Data(294); Spectra(67); Bioactivity(174),2633.0,3339.0,-19,,supporting information,,,,"Article; Liu, Lianghui; Yu, Mengmeng; Wayland, Bradford B.; Fu, Xuefeng; Chemical Communications; vol. 46; 34; (2010); p. 6353 - 6355;",https://www.reaxys.com/reaxys/secured/hopinto.do?context=C&query=CNR.CNR%3D8923579&database=RX&origin=ReaxysOutput&ln=
,CC1NCCN1,102522.0,https://www.reaxys.com/reaxys/secured/hopinto.do?context=S&query=IDE.XRN%3D102522&database=RX&origin=ReaxysOutput&ln=,(1472 of 4000),54140-09-9,2-methylimidazolidine; 2-Methyl-imidazolidin,C4H10N2,C4H10N2,86.1368,heterocyclic,,JUDVCTHUDHRSSD-UHFFFAOYSA-N,,,,Identification(6); Physical Data(2); Spectra(2),4.0,4.0,47.5 - 48.5,petroleum ether,,,,,"Article; Watanabe; Journal of the American Chemical Society; vol. 79; (1957); p. 2833,2836;",https://www.reaxys.com/reaxys/secured/hopinto.do?context=C&query=CNR.CNR%3D627475&database=RX&origin=ReaxysOutput&ln=
,C1CNCCN1,102555.0,https://www.reaxys.com/reaxys/secured/hopinto.do?context=S&query=IDE.XRN%3D102555&database=RX&origin=ReaxysOutput&ln=,(1473 of 4000),110-85-0,piperazine; diethylenediamine,(CH2)4N2H2,C4H10N2,86.1368,heterocyclic,,GLUUGHFHXGJENI-UHFFFAOYSA-N,,,,Identification(8073); Physical Data(397); Spectra(101); Bioactivity(812),11880.0,15282.0,106,,,,,,"Article; Goud, N. Rajesh; Suresh, Kuthuru; Nangia, Ashwini; Crystal Growth and Design; vol. 13; 4; (2013); p. 1590 - 1601;; ; Article; Muriithi, Naftali T.; Onindo, Charles O.; Mbuvi, Harun M.; Andala, Dickson M.; Bulletin of the Chemical Society of Ethiopia; vol. 27; 2; (2013); p. 233 - 239;; ; Article; Moisescu-Goia; Muresan-Pop; Simon; Journal of Molecular Structure; vol. 1150; (2017); p. 37 - 43;; ; Article; Mittapalli, Sudhir; Chaitanya Mannava; Sahoo, Rasmita; Nangia, Ashwini; Crystal Growth and Design; vol. 19; 1; (2019); p. 219 - 230;",https://www.reaxys.com/reaxys/secured/hopinto.do?context=C&query=CNR.CNR%3D35485470&database=RX&origin=ReaxysOutput&ln=
,CCC1(C)NN1,605333.0,https://www.reaxys.com/reaxys/secured/hopinto.do?context=S&query=IDE.XRN%3D605333&database=RX&origin=ReaxysOutput&ln=,(1474 of 4000),4901-75-1,"3-ethyl-3-methyl-1,2-diazacyclopropane; 3-Ethyl-3-methyl-diazacyclopropan; 3-Ethyl-3-methyl-diaziridin; Methyl-ethyldiaziridin; 3-Methyl-3-ethyl-diaza-cyclopropan; C-Ethyl-C-methyl-diazacyclopropan; 3-ethyl-3-methyl-diaziridine; Butanon-isohydrazon",C4H10N2,C4H10N2,86.1368,heterocyclic,,MLTKZVHOZAKJMV-UHFFFAOYSA-N,,,,Identification(10); Physical Data(5); Spectra(3),4.0,10.0,22,,Page/Page column 20,,,,Patent; SHEVTSOV ALEXANDER VLADIMIROVICH; CRO CONSULTING; WO2013/111118; (2013); A2;,https://www.reaxys.com/reaxys/secured/hopinto.do?context=C&query=CNR.CNR%3D38050899&database=RX&origin=ReaxysOutput&ln=
,CCCC(N)=N,605394.0,https://www.reaxys.com/reaxys/secured/hopinto.do?context=S&query=IDE.XRN%3D605394&database=RX&origin=ReaxysOutput&ln=,(1475 of 4000),107-90-4,butyramidine; Butyramidin,C4H10N2,C4H10N2,86.1368,acyclic,,RXKUYBRRTKRGME-UHFFFAOYSA-N,,,,Identification(26); Physical Data(4); Spectra(1); Bioactivity(3),20.0,44.0,26 - 27,,,,,,"Article; Lambert,R.F.; Kristofferson,C.E.; Journal of Organic Chemistry; vol. 30; (1965); p. 3938 - 3939;",https://www.reaxys.com/reaxys/secured/hopinto.do?context=C&query=CNR.CNR%3D179753&database=RX&origin=ReaxysOutput&ln=
,CN1CCN1C,878163.0,https://www.reaxys.com/reaxys/secured/hopinto.do?context=S&query=IDE.XRN%3D878163&database=RX&origin=ReaxysOutput&ln=,(1476 of 4000),52433-27-9; 67144-62-1,"1,2-Dimethyl-1,2-diazetidin",C4H10N2,C4H10N2,86.1368,heterocyclic,,LHUYIRPDEPSBCF-UHFFFAOYSA-N,,,,Identification(9); Physical Data(8); Spectra(4),1.0,7.0,-91.6 - -88.8,,,,,,Patent; FMC CORP; US3129215; (1958); A; Chem.Abstr.; vol. 60; 15874; (1964); Chem.Abstr.; vol. 60; 15874; (1964);,https://www.reaxys.com/reaxys/secured/hopinto.do?context=C&query=CNR.CNR%3D2828581&database=RX&origin=ReaxysOutput&ln=
,CNC(C)=NC,1736130.0,https://www.reaxys.com/reaxys/secured/hopinto.do?context=S&query=IDE.XRN%3D1736130&database=RX&origin=ReaxysOutput&ln=,(1477 of 4000),4238-37-3,"trimethylformamidine; Acet-N,N'-dimethyl-amidin; N,N'-dimethyl-acetamidine; N,N'-Dimethyl-acetamidin; N.N'-Dimethyl-acetamid",C4H10N2,C4H10N2,86.1368,acyclic,,JMHYNOCZNRXMLN-UHFFFAOYSA-N,,,,Identification(7); Physical Data(5); Spectra(1),21.0,9.0,38 - 40,,,,,,"Article; Oxley; Short; Journal of the Chemical Society; (1948); p. 1514,1522;",https://www.reaxys.com/reaxys/secured/hopinto.do?context=C&query=CNR.CNR%3D1104648&database=RX&origin=ReaxysOutput&ln=
,CC\C(C)=N\N,3080148.0,https://www.reaxys.com/reaxys/secured/hopinto.do?context=S&query=IDE.XRN%3D3080148&database=RX&origin=ReaxysOutput&ln=,(1478 of 4000),20259-63-6,syn(CH3)-Methyl-ethyl-keton-hydrazon; butan-2-one (E)-hydrazone; 2-Butanone Hydrazone,C4H10N2,C4H10N2,86.1368,acyclic,,VPGUBZVWMHRRSS-GQCTYLIASA-N,,,,Identification(11); Physical Data(1); Spectra(2),2.0,7.0,168 - 173,,,,,,Patent; ARKEMA; US5233047; (1993); A;,https://www.reaxys.com/reaxys/secured/hopinto.do?context=C&query=CNR.CNR%3D191739&database=RX&origin=ReaxysOutput&ln=
,C1CC=CS1,103169.0,https://www.reaxys.com/reaxys/secured/hopinto.do?context=S&query=IDE.XRN%3D103169&database=RX&origin=ReaxysOutput&ln=,(1479 of 4000),1120-59-8,"2,3-dihydrothiophene; 2,3-Dihydro-thiophen",SCH2CH2CHCH,C4H6S,86.1576,heterocyclic,,OXBLVCZKDOZZOJ-UHFFFAOYSA-N,,,,Identification(139); Physical Data(22); Spectra(25),64.0,163.0,109.6,,,,,,"Article; Davies; Sunner; Acta Chemica Scandinavica (1947); vol. 16; (1962); p. 1870,1871;",https://www.reaxys.com/reaxys/secured/hopinto.do?context=C&query=CNR.CNR%3D3178892&database=RX&origin=ReaxysOutput&ln=
,C1SCC=C1,103175.0,https://www.reaxys.com/reaxys/secured/hopinto.do?context=S&query=IDE.XRN%3D103175&database=RX&origin=ReaxysOutput&ln=,(1480 of 4000),1708-32-3,"2,5-dihydrothiophene",CH2CHCHCH2S,C4H6S,86.1576,heterocyclic,,WURYWHAKEJHAOV-UHFFFAOYSA-N,,,,Identification(90); Physical Data(31); Spectra(30); Bioactivity(1),59.0,140.0,-50.1,,,,,,"Article; Davies; Sunner; Acta Chemica Scandinavica (1947); vol. 16; (1962); p. 1870,1871;",https://www.reaxys.com/reaxys/secured/hopinto.do?context=C&query=CNR.CNR%3D3178892&database=RX&origin=ReaxysOutput&ln=
,C=CSC=C,1733369.0,https://www.reaxys.com/reaxys/secured/hopinto.do?context=S&query=IDE.XRN%3D1733369&database=RX&origin=ReaxysOutput&ln=,(1481 of 4000),627-51-0,divinyl sulfide,(C2H3)2S,C4H6S,86.1576,acyclic,,UIYCHXAGWOYNNA-UHFFFAOYSA-N,,,,Identification(216); Physical Data(58); Spectra(45),194.0,370.0,193 - 194,,,,,,"Patent; SHIONOGI &amp; CO., LTD.; US4634697; (1987); A;",https://www.reaxys.com/reaxys/secured/hopinto.do?context=C&query=CNR.CNR%3D7105380&database=RX&origin=ReaxysOutput&ln=
,CCCCCC,1730733.0,https://www.reaxys.com/reaxys/secured/hopinto.do?context=S&query=IDE.XRN%3D1730733&database=RX&origin=ReaxysOutput&ln=,(1482 of 4000),110-54-3,hexane; ›hexane,CH3CH2CH2CH2CH2CH3,C6H14,86.1772,acyclic,,VLKZOEOYAKHREP-UHFFFAOYSA-N,,,,Identification(8888); Physical Data(5143); Spectra(183); Bioactivity(983),3416.0,16641.0,178,,,,,,Letter; Williams; O'Brien; Bardsley; Journal of the American Chemical Society; vol. 123; 4; (2001); p. 737 - 738;,https://www.reaxys.com/reaxys/secured/hopinto.do?context=C&query=CNR.CNR%3D6308999&database=RX&origin=ReaxysOutput&ln=
,CCC(C)CC,1730734.0,https://www.reaxys.com/reaxys/secured/hopinto.do?context=S&query=IDE.XRN%3D1730734&database=RX&origin=ReaxysOutput&ln=,(1483 of 4000),96-14-0,3-methylpentane,CH3CH2CH(CH3)CH2CH3,C6H14,86.1772,acyclic,,PFEOZHBOMNWTJB-UHFFFAOYSA-N,,,,Identification(1627); Physical Data(637); Spectra(54); Bioactivity(128),325.0,2547.0,-162.9,,,,,,"Article; Finke; Messerly; Journal of Chemical Thermodynamics; vol. 5; (1973); p. 247,249,250,251;; ; Article; Eicher; Zwolinski; Journal of Physical Chemistry; vol. 76; (1972); p. 3295,3297;",https://www.reaxys.com/reaxys/secured/hopinto.do?context=C&query=CNR.CNR%3D4304553&database=RX&origin=ReaxysOutput&ln=
,CCCC(C)C,1730735.0,https://www.reaxys.com/reaxys/secured/hopinto.do?context=S&query=IDE.XRN%3D1730735&database=RX&origin=ReaxysOutput&ln=,(1484 of 4000),107-83-5,2-Methylpentane; isohexane,CH3CH2CH2CH(CH3)2,C6H14,86.1772,acyclic,,AFABGHUZZDYHJO-UHFFFAOYSA-N,,,,Identification(1738); Physical Data(544); Spectra(66); Bioactivity(139),559.0,2730.0,92 - 94,,supporting information,,,,"Article; McKeever, Caitriona; Kaiser, Marcel; Rozas, Isabel; Journal of Medicinal Chemistry; vol. 56; 3; (2013); p. 700 - 711;",https://www.reaxys.com/reaxys/secured/hopinto.do?context=C&query=CNR.CNR%3D35466778&database=RX&origin=ReaxysOutput&ln=
,CCC(C)(C)C,1730736.0,https://www.reaxys.com/reaxys/secured/hopinto.do?context=S&query=IDE.XRN%3D1730736&database=RX&origin=ReaxysOutput&ln=,(1485 of 4000),75-83-2,"2,2-Dimethylbutane; neohexane",C2H5C(CH3)3,C6H14,86.1772,acyclic,,HNRMPXKDFBEGFZ-UHFFFAOYSA-N,,,,Identification(1165); Physical Data(554); Spectra(71); Bioactivity(102),249.0,2023.0,-99.16,,,,,,Letter; Williams; O'Brien; Bardsley; Journal of the American Chemical Society; vol. 123; 4; (2001); p. 737 - 738;,https://www.reaxys.com/reaxys/secured/hopinto.do?context=C&query=CNR.CNR%3D6308999&database=RX&origin=ReaxysOutput&ln=
,CC(C)C(C)C,1730737.0,https://www.reaxys.com/reaxys/secured/hopinto.do?context=S&query=IDE.XRN%3D1730737&database=RX&origin=ReaxysOutput&ln=,(1486 of 4000),79-29-8,"2,3-dimethylbutane; 2,3-DMB; tetramethylethane",(CH3)4C2H2,C6H14,86.1772,acyclic,,ZFFMLCVRJBZUDZ-UHFFFAOYSA-N,,,,Identification(944); Physical Data(542); Spectra(76); Bioactivity(108),487.0,2111.0,-129.16,,,,,,Letter; Williams; O'Brien; Bardsley; Journal of the American Chemical Society; vol. 123; 4; (2001); p. 737 - 738;,https://www.reaxys.com/reaxys/secured/hopinto.do?context=C&query=CNR.CNR%3D6308999&database=RX&origin=ReaxysOutput&ln=
,[SiH3]C#C[SiH3],1733353.0,https://www.reaxys.com/reaxys/secured/hopinto.do?context=S&query=IDE.XRN%3D1733353&database=RX&origin=ReaxysOutput&ln=,(1488 of 4000),1070-76-4,ethynediyl-bis-silane; Aethindiyl-bis-silan; Disilyl-acetylen,H3SiCCSiH3,C2H6Si2,86.2406,acyclic,,OFIDJMJLBNOBIL-UHFFFAOYSA-N,,,,Identification(9); Physical Data(12); Spectra(12),7.0,18.0,-59,,,,,,"Article; Lord et al.; Spectrochimica Acta; vol. 12; (1958); p. 147,148,150;; ; Article; Cradock et al.; Journal of the Chemical Society, Dalton Transactions; (1978); p. 759;",https://www.reaxys.com/reaxys/secured/hopinto.do?context=C&query=CNR.CNR%3D1278557&database=RX&origin=ReaxysOutput&ln=
,FC(F)Cl,1731036.0,https://www.reaxys.com/reaxys/secured/hopinto.do?context=S&query=IDE.XRN%3D1731036&database=RX&origin=ReaxysOutput&ln=,(1490 of 4000),75-45-6,Chlorodifluoromethane,ClCHF2,CHClF2,86.4687,acyclic,,VOPWNXZWBYDODV-UHFFFAOYSA-N,,,,Identification(725); Physical Data(372); Spectra(101); Bioactivity(96),1361.0,1729.0,-159.15,,,,,,"Article; Wang, Bao-Huai; Adcock, James L.; Mathur, Shyam B.; Hook, W. Alexander Van; Journal of Chemical Thermodynamics; vol. 23; 7; (1991); p. 699 - 710;",https://www.reaxys.com/reaxys/secured/hopinto.do?context=C&query=CNR.CNR%3D5579834&database=RX&origin=ReaxysOutput&ln=
,[Cl-].[H]N([H])O.[H][N+]([H])([H])[H],17925508.0,https://www.reaxys.com/reaxys/secured/hopinto.do?context=S&query=IDE.XRN%3D17925508&database=RX&origin=ReaxysOutput&ln=,(1491 of 4000),74705-28-5,ammonium chloride * hydroxylamine,NH4(1+)*Cl(1-)*NH2OH=NH4Cl*NH2OH,Cl*H3NO*H4N,86.5214,Coordination compound,,UQPRVFDDBUGZLW-UHFFFAOYSA-N,,,,Identification(5); Physical Data(4),1.0,1.0,52,,,with decomposition,,,"Article; Grigorovich, Z. I.; Lyubimova, G. N.; Razumova, A. P.; Russian Journal of Inorganic Chemistry; vol. 25; (1980); p. 543 - 546; Russ. J. Inorg. Chem. (Transl. of Zh. Neorg. Khim.); vol. 25; (1980); p. 975 - 981; (from Gmelin)",https://www.reaxys.com/reaxys/secured/hopinto.do?context=C&query=CNR.CNR%3D8518239&database=RX&origin=ReaxysOutput&ln=
,[Li+].[K+].[O-]N(=O)=O,16006651.0,https://www.reaxys.com/reaxys/secured/hopinto.do?context=S&query=IDE.XRN%3D16006651&database=RX&origin=ReaxysOutput&ln=,(1494 of 4000),,,0.55K(1+)*0.45Li(1+)*NO3(1-)=(K0.55Li0.45)NO3,0K*0Li*NO3,86.6324,,,BWBIUOXIYFTSEH-UHFFFAOYSA-N,,,,Identification(5); Physical Data(2),,1.0,122,,,,,,"Article; Bossmann, E.; Richter, J.; Stark, A.; Berichte der Bunsen-Gesellschaft; vol. 97; 2; (1993); p. 240 - 245; (from Gmelin)",https://www.reaxys.com/reaxys/secured/hopinto.do?context=C&query=CNR.CNR%3D5712537&database=RX&origin=ReaxysOutput&ln=
,[Li].O.O.[Mn].[Co].[Ni],27698020.0,https://www.reaxys.com/reaxys/secured/hopinto.do?context=S&query=IDE.XRN%3D27698020&database=RX&origin=ReaxysOutput&ln=,(1495 of 4000),,,Li1.17Ni0.2Co0.05Mn0.58O2,Co0LiMn0Ni0O2,86.6715,,,SFVCZXOLELJPRE-UHFFFAOYSA-N,,,,Identification(7); Physical Data(5); Spectra(4),1.0,2.0,228.2,,,,,,Article; Wang; Huang; Li; Cao; Ye; RSC Advances; vol. 5; 61; (2015); p. 49651 - 49656;,https://www.reaxys.com/reaxys/secured/hopinto.do?context=C&query=CNR.CNR%3D66390695&database=RX&origin=ReaxysOutput&ln=
,ClOCl,13264793.0,https://www.reaxys.com/reaxys/secured/hopinto.do?context=S&query=IDE.XRN%3D13264793&database=RX&origin=ReaxysOutput&ln=,(1497 of 4000),7791-21-1,dichlorine monoxide,ClOCl,Cl2O,86.9054,,,RCJVRSBWZCNNQT-UHFFFAOYSA-N,,,,Identification(52); Physical Data(142); Spectra(32); Bioactivity(30),197.0,564.0,-117 - -115,,,,,,"Article; Goodeve, C. F.; (1930); p. 2733 - 2737;; ; Article; Gmelin Handbuch der Anorganischen Chemie; vol. Cl: SVol.B2; 3, page 320 - 322; (from Gmelin)",https://www.reaxys.com/reaxys/secured/hopinto.do?context=C&query=CNR.CNR%3D7517964&database=RX&origin=ReaxysOutput&ln=
,[H]B([H])[H].CCN(C)C,3665194.0,https://www.reaxys.com/reaxys/secured/hopinto.do?context=S&query=IDE.XRN%3D3665194&database=RX&origin=ReaxysOutput&ln=,(1500 of 4000),,Dimethyl-ethyl-amin*BH3; ethyl-dimethyl-amine; compound with borane; Aethyl-dimethyl-amin; Verbindung mit Boran,C4H11N*BH3,BH3*C4H11N,86.9729,acyclic,,MCNLBTDAYCITLL-UHFFFAOYSA-N,,,,Identification(5); Physical Data(2); Spectra(1),,2.0,17.7,,,,,,Patent; Ethyl Corp.; US2860167; (1953); A;,https://www.reaxys.com/reaxys/secured/hopinto.do?context=C&query=CNR.CNR%3D1256644&database=RX&origin=ReaxysOutput&ln=
,CN.CB(C)C,3667026.0,https://www.reaxys.com/reaxys/secured/hopinto.do?context=S&query=IDE.XRN%3D3667026&database=RX&origin=ReaxysOutput&ln=,(1501 of 4000),854457-30-0,Methylamin-Trimethylboran; trimethyl-borane; compound with methylamine; Trimethyl-boran; Verbindung mit Methylamin; B.B.B.N-Tetramethyl-borazan,B(CH3)3*NH2CH3,CH5N*C3H9B,86.9729,acyclic; Coordination compound,,VIRCFSZMUJTIBF-UHFFFAOYSA-N,,,,Identification(6); Physical Data(15); Spectra(2),3.0,11.0,26.4,,,,,,"Article; Wiberg; Hertwig; Zeitschrift fur Anorganische und Allgemeine Chemie; vol. 255; (1948); p. 152,156,175,179;",https://www.reaxys.com/reaxys/secured/hopinto.do?context=C&query=CNR.CNR%3D1251835&database=RX&origin=ReaxysOutput&ln=
,[H]B([H])C.CN(C)C,3667094.0,https://www.reaxys.com/reaxys/secured/hopinto.do?context=S&query=IDE.XRN%3D3667094&database=RX&origin=ReaxysOutput&ln=,(1502 of 4000),,,BH2(CH3)*N(CH3)3,CH5B*C3H9N,86.9729,acyclic; Coordination compound,,TWRBKMNDSOTCFJ-UHFFFAOYSA-N,,,,Identification(5); Physical Data(5),5.0,4.0,1,,,,,,"Article; Wiberg, E.; Naturwissenschaften; vol. 35; (1948); p. 182 - 188;; ; Article; Gmelin Handbuch der Anorganischen Chemie; vol. B: SVol.1; 4.9, page 235 - 238; (from Gmelin)",https://www.reaxys.com/reaxys/secured/hopinto.do?context=C&query=CNR.CNR%3D7368797&database=RX&origin=ReaxysOutput&ln=
,[H]B([H])[H].CC(C)(C)N,4134905.0,https://www.reaxys.com/reaxys/secured/hopinto.do?context=S&query=IDE.XRN%3D4134905&database=RX&origin=ReaxysOutput&ln=,(1503 of 4000),,borane tert-butylamine; tert-butylamine borane; borane tert-butylamine complex; tert-butylamine-borane complex,(C(CH3)3)NH2*BH3,BH3*C4H11N,86.9729,acyclic; Coordination compound,,GKFJEDWZQZKYHV-UHFFFAOYSA-N,,,,Identification(112); Physical Data(5); Spectra(15); Bioactivity(7),51.0,138.0,98,,,with decomposition,,,"Article; Marsella, John A.; Caulton, Kenneth G.; Journal of the American Chemical Society; vol. 104; 9; (1982); p. 2361 - 2365; (from Gmelin)",https://www.reaxys.com/reaxys/secured/hopinto.do?context=C&query=CNR.CNR%3D5691462&database=RX&origin=ReaxysOutput&ln=