Structure: Image,SMILES,Substance Identification: Reaxys Registry Number,Links to Reaxys,Data Count,CAS Registry Number,Chemical Name,Linear Structure Formula,Molecular Formula,Molecular Weight,Type of Substance,Type and Modification,InChI Key,Composition: Comp. Name,Composition: Comp. Conc.,Composition: Comp. Attrib.,Field Availability,Number of Reactions,Number of References,Melting Point: Melting Point [C],Solvent (Melting Point),Location,Comment (Melting Point),Crystallizes With,Amount (Melting Point) [mol],References,Links to Reaxys.1
,CB(C)O,1730814.0,https://www.reaxys.com/reaxys/secured/hopinto.do?context=S&query=IDE.XRN%3D1730814&database=RX&origin=ReaxysOutput&ln=,(269 of 4000),13061-97-7,hydroxy-dimethyl-borane; Dimethylborsaeure,B(CH3)2OH,C2H7BO,57.888,acyclic,,HWEKVSRZLQDNFL-UHFFFAOYSA-N,,,,Identification(13); Physical Data(13); Spectra(6),30.0,54.0,-29,,,,,,"Article; Ulmschneider; Goubeau; Chemische Berichte; vol. 90; (1957); p. 2733,2736;",https://www.reaxys.com/reaxys/secured/hopinto.do?context=C&query=CNR.CNR%3D1637015&database=RX&origin=ReaxysOutput&ln=
,[H].O.[Na].[H]O[H],16475245.0,https://www.reaxys.com/reaxys/secured/hopinto.do?context=S&query=IDE.XRN%3D16475245&database=RX&origin=ReaxysOutput&ln=,(271 of 4000),,sodium hydroxide monohydrate,NaOH*H2O,H2O*HNaO,58.0124,,,FPZYIFUMPGNUHU-UHFFFAOYSA-N,,,,Identification(5); Physical Data(55); Spectra(5),28.0,47.0,65,,,,,,"Article; Carlton, J. K.; Chiang, Y.; Journal of Applied Chemistry; vol. 4; (1954); p. 268 - 273;; ; Article; Cohen-Adad, R.; Tranquard, A.; Peronne, R.; Negri, P.; Rollet, A. P.; Comptes Rendus Hebdomadaires des Seances de l'Academie des Sciences; vol. 251; (1960); p. 2035 - 2037;; ; Article; Gmelin Handbuch der Anorganischen Chemie; vol. Na: SVol.2; 113, page 852 - 856;; ; Article; Kniep, R.; Laumen, M.; Zachos, A.; Thermochimica Acta; vol. 85; (1985); p. 131 - 134;; ; Article; Gmelin Handbuch der Anorganischen Chemie; vol. Na: SVol.2; 111, page 847 - 850; (from Gmelin)",https://www.reaxys.com/reaxys/secured/hopinto.do?context=C&query=CNR.CNR%3D7206734&database=RX&origin=ReaxysOutput&ln=
,O=CC=O,1732463.0,https://www.reaxys.com/reaxys/secured/hopinto.do?context=S&query=IDE.XRN%3D1732463&database=RX&origin=ReaxysOutput&ln=,(273 of 4000),131543-46-9,Glyoxal; gyoxal,OCHCHO,C2H2O2,58.0367,acyclic,,LEQAOMBKQFMDFZ-UHFFFAOYSA-N,,,,Identification(4980); Physical Data(99); Spectra(133); Bioactivity(530),5229.0,8697.0,15,,,wird bei 10grad opak.,,,Article; Debus; Justus Liebigs Annalen der Chemie; vol. 102; (1857); p. 28;,https://www.reaxys.com/reaxys/secured/hopinto.do?context=C&query=CNR.CNR%3D1141151&database=RX&origin=ReaxysOutput&ln=
,[2H]C([2H])([2H])CC#N,2203782.0,https://www.reaxys.com/reaxys/secured/hopinto.do?context=S&query=IDE.XRN%3D2203782&database=RX&origin=ReaxysOutput&ln=,(274 of 4000),24300-21-8,"3,3,3-d3-propionitrile; 3,3,3-Trideutero-propionitril; β,β,β-Trideuteroethylcyanid; 3,3,3-trideuterio-propionitrile; propionitrile-3,3,3-d3; (3,3,3-2H3)propionitrile",C3H2D3N,C3H5N,58.0556,acyclic,,FVSKHRXBFJPNKK-FIBGUPNXSA-N,,,,Identification(7); Physical Data(2); Spectra(6),4.0,11.0,97,,,,,,Article; Frieman; Jurewicz; Journal of the American Chemical Society; vol. 91; (1969); p. 1800;,https://www.reaxys.com/reaxys/secured/hopinto.do?context=C&query=CNR.CNR%3D5228728&database=RX&origin=ReaxysOutput&ln=
,CC1CO1,79763.0,https://www.reaxys.com/reaxys/secured/hopinto.do?context=S&query=IDE.XRN%3D79763&database=RX&origin=ReaxysOutput&ln=,(275 of 4000),75-56-9; 16033-71-9,methyloxirane; Propylene oxide,CH3(C2H3O),C3H6O,58.08,heterocyclic,,GOOHAUXETOMSMM-UHFFFAOYSA-N,,,,Identification(8843); Physical Data(200); Spectra(126); Bioactivity(682),4326.0,12931.0,-112,,,,,,"Article; Ning, Guo-Hong; Matsumura, Kazuki; Inokuma, Yasuhide; Fujita, Makoto; Chemical Communications; vol. 52; 43; (2016); p. 7013 - 7015;",https://www.reaxys.com/reaxys/secured/hopinto.do?context=C&query=CNR.CNR%3D68964947&database=RX&origin=ReaxysOutput&ln=
,C1COC1,102382.0,https://www.reaxys.com/reaxys/secured/hopinto.do?context=S&query=IDE.XRN%3D102382&database=RX&origin=ReaxysOutput&ln=,(276 of 4000),503-30-0,trimethylene oxide; Oxetane,OC3H6,C3H6O,58.08,heterocyclic,,AHHWIHXENZJRFG-UHFFFAOYSA-N,,,,Identification(926); Physical Data(148); Spectra(63); Bioactivity(86),754.0,1515.0,-99.15,,,,,,"Article; Luger, P.; Buschmann, J.; Journal of the American Chemical Society; vol. 106; 23; (1984); p. 7118 - 7121;",https://www.reaxys.com/reaxys/secured/hopinto.do?context=C&query=CNR.CNR%3D5763624&database=RX&origin=ReaxysOutput&ln=
,CCC=O,506010.0,https://www.reaxys.com/reaxys/secured/hopinto.do?context=S&query=IDE.XRN%3D506010&database=RX&origin=ReaxysOutput&ln=,(277 of 4000),123-38-6,propionaldehyde; propanal; propionic aldehyde,CHOCH2CH3,C3H6O,58.08,acyclic,,NBBJYMSMWIIQGU-UHFFFAOYSA-N,,,,Identification(695); Physical Data(367); Spectra(221); Bioactivity(755),14586.0,12082.0,147 - 150,,,,,,"Article; Meyers,A.I. et al.; Journal of Organic Chemistry; vol. 38; (1973); p. 36 - 56;",https://www.reaxys.com/reaxys/secured/hopinto.do?context=C&query=CNR.CNR%3D187561&database=RX&origin=ReaxysOutput&ln=
,OCC=C,605307.0,https://www.reaxys.com/reaxys/secured/hopinto.do?context=S&query=IDE.XRN%3D605307&database=RX&origin=ReaxysOutput&ln=,(278 of 4000),107-18-6,allyl alcohol; prop-2-en-1-ol,HOCH2CHCH2,C3H6O,58.08,acyclic,,XXROGKLTLUQVRX-UHFFFAOYSA-N,,,,Identification(706); Physical Data(533); Spectra(151); Bioactivity(566),12524.0,10232.0,113 - 114,,supporting information,,,,"Article; Wang, Yu-Jiao; Wang, Tong-Tong; Liang, Cai-Cai; Li, Zi-Hao; Zhao, Li-Ming; Organic Letters; vol. 23; 16; (2021); p. 6272 - 6277;",https://www.reaxys.com/reaxys/secured/hopinto.do?context=C&query=CNR.CNR%3D98538293&database=RX&origin=ReaxysOutput&ln=
,CC(C)=O,635680.0,https://www.reaxys.com/reaxys/secured/hopinto.do?context=S&query=IDE.XRN%3D635680&database=RX&origin=ReaxysOutput&ln=,(279 of 4000),67-64-1,acetone; dimethyl ketone; propanone,CO(CH3)2,C3H6O,58.08,acyclic,,CSCPPACGZOOCGX-UHFFFAOYSA-N,,,,Identification(12591); Physical Data(4153); Spectra(664); Bioactivity(3136),50792.0,53618.0,-94.3,,,,,,Patent; AMGEN INC; US2008/75777; (2008); A1;; ; Article; Timmermans; Chemisches Zentralblatt; vol. 82; II; (1911); p. 1015;,https://www.reaxys.com/reaxys/secured/hopinto.do?context=C&query=CNR.CNR%3D459428&database=RX&origin=ReaxysOutput&ln=
,COC=C,1209255.0,https://www.reaxys.com/reaxys/secured/hopinto.do?context=S&query=IDE.XRN%3D1209255&database=RX&origin=ReaxysOutput&ln=,(280 of 4000),107-25-5,methoxyethene; methyl vinyl ether,H2CCHOCH3,C3H6O,58.08,acyclic,,XJRBAMWJDBPFIM-UHFFFAOYSA-N,,,,Identification(359); Physical Data(68); Spectra(95); Bioactivity(48),507.0,849.0,11 - 13,,,,,,"Article; Fischer; Plabst; Chemische Berichte; vol. 107; (1974); p. 3326,3327, 3328, 3330;",https://www.reaxys.com/reaxys/secured/hopinto.do?context=C&query=CNR.CNR%3D3626046&database=RX&origin=ReaxysOutput&ln=
,CC(N)=N,605302.0,https://www.reaxys.com/reaxys/secured/hopinto.do?context=S&query=IDE.XRN%3D605302&database=RX&origin=ReaxysOutput&ln=,(281 of 4000),143-37-3,acetamidine; acetimidamide; ethanimidamide,CH3C(NH)NH2,C2H6N2,58.083,acyclic,,OQLZINXFSUDMHM-UHFFFAOYSA-N,,,,Identification(211); Physical Data(34); Spectra(10); Bioactivity(31),534.0,523.0,170,,,,,,"Article; Goyal, R. N.; Kumar, Anoop; Indian Journal of Chemistry, Section A: Inorganic, Physical, Theoretical and Analytical; vol. 28; 11; (1989); p. 949 - 952;",https://www.reaxys.com/reaxys/secured/hopinto.do?context=C&query=CNR.CNR%3D5951576&database=RX&origin=ReaxysOutput&ln=
,CC=NN,906726.0,https://www.reaxys.com/reaxys/secured/hopinto.do?context=S&query=IDE.XRN%3D906726&database=RX&origin=ReaxysOutput&ln=,(282 of 4000),5799-73-5,acetaldehyde hydrazone; ethylidenehydrazine; Acetaldehyd-hydrazon,CH3CHNNH2,C2H6N2,58.083,acyclic,,SFYLHIMXJQGKGZ-UHFFFAOYSA-N,,,,Identification(11); Physical Data(13); Spectra(4),18.0,27.0,103 - 105,,,,,,Patent; Firmenich International SA; CH458376; (1966); A; Chem.Abstr.; vol. 70; 28962j; (1969); Chem.Abstr.; vol. 70; 28962j; (1969);,https://www.reaxys.com/reaxys/secured/hopinto.do?context=C&query=CNR.CNR%3D2976705&database=RX&origin=ReaxysOutput&ln=
,C\N=N/C,1733302.0,https://www.reaxys.com/reaxys/secured/hopinto.do?context=S&query=IDE.XRN%3D1733302&database=RX&origin=ReaxysOutput&ln=,(283 of 4000),4143-42-4,(Z)-azomethane; cis-Azomethan; cis-Azomethane; Azomethan; cis-Dimethyldiazen,C2H6N2,C2H6N2,58.083,acyclic,,JCCAVOLDXDEODY-ARJAWSKDSA-N,,,,Identification(9); Physical Data(32); Spectra(34),66.0,195.0,-66,,,,,,Article; Ackermann et al.; Journal of the American Chemical Society; vol. 99; (1977); p. 1661;,https://www.reaxys.com/reaxys/secured/hopinto.do?context=C&query=CNR.CNR%3D4373375&database=RX&origin=ReaxysOutput&ln=
,CCCC,969129.0,https://www.reaxys.com/reaxys/secured/hopinto.do?context=S&query=IDE.XRN%3D969129&database=RX&origin=ReaxysOutput&ln=,(284 of 4000),106-97-8,Butane; n-butane; HC-600,C4H9H,C4H10,58.1234,acyclic,,IJDNQMDRQITEOD-UHFFFAOYSA-N,,,,Identification(15852); Physical Data(1397); Spectra(136); Bioactivity(993),1949.0,19657.0,92 - 94,,supporting information,,,,"Article; McKeever, Caitriona; Kaiser, Marcel; Rozas, Isabel; Journal of Medicinal Chemistry; vol. 56; 3; (2013); p. 700 - 711;",https://www.reaxys.com/reaxys/secured/hopinto.do?context=C&query=CNR.CNR%3D35466778&database=RX&origin=ReaxysOutput&ln=
,CC(C)C,1730720.0,https://www.reaxys.com/reaxys/secured/hopinto.do?context=S&query=IDE.XRN%3D1730720&database=RX&origin=ReaxysOutput&ln=,(285 of 4000),75-28-5,Isobutane; HC600a,CH(CH3)3,C4H10,58.1234,acyclic,,NNPPMTNAJDCUHE-UHFFFAOYSA-N,,,,Identification(8549); Physical Data(823); Spectra(111); Bioactivity(543),1459.0,10840.0,-159.6,,,,,,Article; Glasgow et al.; Analytical Chemistry; vol. 20; (1948); p. 417;; ; Report; Rossini; Selected values of chemical thermodynamic properties;,https://www.reaxys.com/reaxys/secured/hopinto.do?context=C&query=CNR.CNR%3D1327590&database=RX&origin=ReaxysOutput&ln=
,[SiH3]C=C,1731575.0,https://www.reaxys.com/reaxys/secured/hopinto.do?context=S&query=IDE.XRN%3D1731575&database=RX&origin=ReaxysOutput&ln=,(286 of 4000),7291-09-0,vinylsilane; Vinyl-silan,(CH2CH)SiH3,C2H6Si,58.1551,acyclic,,UKRDPEFKFJNXQM-UHFFFAOYSA-N,,,,Identification(482); Physical Data(26); Spectra(22),25.0,502.0,-179.8,,,,,,Article; Tannenbaum; Kaye; Lewenz; Journal of the American Chemical Society; vol. 75; (1953); p. 3756;,https://www.reaxys.com/reaxys/secured/hopinto.do?context=C&query=CNR.CNR%3D1250647&database=RX&origin=ReaxysOutput&ln=
,[H].[H].[H].B.C.O.[H]N([H])[H],16708198.0,https://www.reaxys.com/reaxys/secured/hopinto.do?context=S&query=IDE.XRN%3D16708198&database=RX&origin=ReaxysOutput&ln=,(287 of 4000),,,B(CH3)O*NH3,H3N*CH3BO,58.8757,Coordination compound,,XRRMUNSEDZTXLY-UHFFFAOYSA-N,,,,Identification(5); Physical Data(1),2.0,2.0,70,,,,,,"Article; Wiberg, E.; Hertwig, K.; Bolz, A.; Zeitschrift fur anorganische Chemie; vol. 256; (1948); p. 177 - 216;; ; Article; Gmelin Handbuch der Anorganischen Chemie; vol. B: SVol.1; 4.11, page 241 - 245; (from Gmelin)",https://www.reaxys.com/reaxys/secured/hopinto.do?context=C&query=CNR.CNR%3D7368764&database=RX&origin=ReaxysOutput&ln=
,[2H]B([2H])N(C)C,2343939.0,https://www.reaxys.com/reaxys/secured/hopinto.do?context=S&query=IDE.XRN%3D2343939&database=RX&origin=ReaxysOutput&ln=,(288 of 4000),854456-99-8,"N,N-Dimethylamino-dideuterioboran; (dimethylamino)dideuteroborane",D2BN(CH3)2,C2H8BN,58.8873,acyclic; Isotope or isotope containing compound,,SDWBRBLWPQDUQP-SMZGMGDZSA-N,,,,Identification(5); Physical Data(1); Spectra(1),3.0,5.0,74.3 - 74.5,,,,,,"Article; Burg; Journal of the American Chemical Society; vol. 74; (1952); p. 1340;; ; Article; Gmelin Handbuch der Anorganischen Chemie; vol. B: B-Verb.4; 4.2.3, page 99 - 108; (from Gmelin)",https://www.reaxys.com/reaxys/secured/hopinto.do?context=C&query=CNR.CNR%3D1254691&database=RX&origin=ReaxysOutput&ln=
,CNC.[H]B([H])[H],4132650.0,https://www.reaxys.com/reaxys/secured/hopinto.do?context=S&query=IDE.XRN%3D4132650&database=RX&origin=ReaxysOutput&ln=,(290 of 4000),,dimethylamine borane; borane dimethylamine; Dimethylaminboran,H3B*N(CH3)2H,BH3*C2H7N,58.9191,acyclic; Coordination compound,,FTDUHBOCJSQEKS-UHFFFAOYSA-N,,,,Identification(737); Physical Data(20); Spectra(18),112.0,806.0,36,,,,,,"Article; Jaska, Cory A.; Temple, Karen; Lough, Alan J.; Manners, Ian; Journal of the American Chemical Society; vol. 125; 31; (2003); p. 9424 - 9434; (from Gmelin)",https://www.reaxys.com/reaxys/secured/hopinto.do?context=C&query=CNR.CNR%3D6412552&database=RX&origin=ReaxysOutput&ln=
,[H]B([H])[H].[H]N([H])CC,6696238.0,https://www.reaxys.com/reaxys/secured/hopinto.do?context=S&query=IDE.XRN%3D6696238&database=RX&origin=ReaxysOutput&ln=,(291 of 4000),856627-30-0,ethylamine borane complex,NH2C2H5*BH3,BH3*C2H7N,58.9191,acyclic; Coordination compound,,UBLZUFVZDVNLIZ-UHFFFAOYSA-N,,,,Identification(6); Physical Data(2); Spectra(9),10.0,14.0,26.5 - 28,,,,,,"Article; Wang, J. S.; Geanangel, R. A.; Inorganica Chimica Acta; vol. 148; (1988); p. 185 - 190; (from Gmelin)",https://www.reaxys.com/reaxys/secured/hopinto.do?context=C&query=CNR.CNR%3D7563096&database=RX&origin=ReaxysOutput&ln=
,CC([O-])=O,1901470.0,https://www.reaxys.com/reaxys/secured/hopinto.do?context=S&query=IDE.XRN%3D1901470&database=RX&origin=ReaxysOutput&ln=,(293 of 4000),71-50-1,acetate,CH3C(O)O(1-),C2H3O2,59.0446,acyclic,,QTBSBXVTEAMEQO-UHFFFAOYSA-M,,,,Identification(72); Physical Data(266); Spectra(101); Bioactivity(143),485.0,824.0,227 - 228,,,,,,"Article; Garner,C.D. et al.; Journal of the Chemical Society, Dalton Transactions; (1975); p. 562 - 566;",https://www.reaxys.com/reaxys/secured/hopinto.do?context=C&query=CNR.CNR%3D304831&database=RX&origin=ReaxysOutput&ln=
,CC(N)=O,1071207.0,https://www.reaxys.com/reaxys/secured/hopinto.do?context=S&query=IDE.XRN%3D1071207&database=RX&origin=ReaxysOutput&ln=,(294 of 4000),60-35-5,acetamide,CH5CON,C2H5NO,59.0678,acyclic; Isotope or isotope containing compound,,DLFVBJFMPXGRIB-UHFFFAOYSA-N,,,,Identification(4584); Physical Data(1028); Spectra(174); Bioactivity(468),4496.0,8381.0,79 - 81,,,,,,"Article; Abidi, Syed Sibte Asghar; Azim, Yasser; Gupta, Abhishek Kumar; Pradeep, Chullikkattil P.; Journal of Molecular Structure; vol. 1150; (2017); p. 103 - 111;",https://www.reaxys.com/reaxys/secured/hopinto.do?context=C&query=CNR.CNR%3D71927473&database=RX&origin=ReaxysOutput&ln=
,CNC=O,1098352.0,https://www.reaxys.com/reaxys/secured/hopinto.do?context=S&query=IDE.XRN%3D1098352&database=RX&origin=ReaxysOutput&ln=,(295 of 4000),123-39-7,N-Methylformamide; MFA,CH3NHC(O)H,C2H5NO,59.0678,acyclic,,ATHHXGZTWNVVOU-UHFFFAOYSA-N,,,,Identification(226); Physical Data(545); Spectra(190); Bioactivity(77),1019.0,1204.0,-2.36,,,,,,"Article; Cobos, Ana; Sikorski, Patryk; González, Juan Antonio; Królikowski, Marek; Hofman, Tadeusz; Journal of Molecular Liquids; vol. 296; (2019);; ; Article; Cobos Huerga, Ana; González, Juan Antonio; Hofman, Tadeusz; Królikowski, Marek; Sikorski, Patryk; Journal of Molecular Liquids; vol. 318; (2020);",https://www.reaxys.com/reaxys/secured/hopinto.do?context=C&query=CNR.CNR%3D78401838&database=RX&origin=ReaxysOutput&ln=
,CC=NO,1209252.0,https://www.reaxys.com/reaxys/secured/hopinto.do?context=S&query=IDE.XRN%3D1209252&database=RX&origin=ReaxysOutput&ln=,(296 of 4000),107-29-9,Acetaldehyde oxime; acetaldoxime,HONCHCH3,C2H5NO,59.0678,acyclic,,FZENGILVLUJGJX-UHFFFAOYSA-N,,,,Identification(62); Physical Data(86); Spectra(27); Bioactivity(37),436.0,489.0,46 - 47,,,,,,"Article; Jensen et al.; Acta chemica Scandinavica. Series B: Organic chemistry and biochemistry; vol. 31; (1977); p. 28;; ; Article; Geiseler et al.; Journal of Molecular Structure; vol. 18; (1973); p. 49,51, 52, 54, 56;",https://www.reaxys.com/reaxys/secured/hopinto.do?context=C&query=CNR.CNR%3D2812069&database=RX&origin=ReaxysOutput&ln=
,C\C=N/O,1900515.0,https://www.reaxys.com/reaxys/secured/hopinto.do?context=S&query=IDE.XRN%3D1900515&database=RX&origin=ReaxysOutput&ln=,(297 of 4000),5775-72-4,Z-acetaldoxime; acetaldoxime-(Z),CH3CHNOH,C2H5NO,59.0678,acyclic,,FZENGILVLUJGJX-IHWYPQMZSA-N,,,,Identification(51); Physical Data(9); Spectra(32); Bioactivity(4),16.0,77.0,46.5,,,,,,"Article; Hosoi; Izawa; Kida; Suzuki; Takahashi; Sakuma; Matsumoto; Mizoguchi; Kuze; Sakaizumi; Kolandaivel, Ponmalai G.; Ohashi; Journal of Molecular Structure; vol. 735-736; SPEC. ISS.; (2005); p. 325 - 334;",https://www.reaxys.com/reaxys/secured/hopinto.do?context=C&query=CNR.CNR%3D6475382&database=RX&origin=ReaxysOutput&ln=
,NC(N)=N,506044.0,https://www.reaxys.com/reaxys/secured/hopinto.do?context=S&query=IDE.XRN%3D506044&database=RX&origin=ReaxysOutput&ln=,(298 of 4000),113-00-8,guanidine nitrate; GUANIDINE,C(NH2)2NH,CH5N3,59.0708,acyclic,,ZRALSGWEFCBTJO-UHFFFAOYSA-N,,,,Identification(3974); Physical Data(184); Spectra(14); Bioactivity(335),3242.0,5366.0,151 - 151.5,ethanol,,,,,Article; Bruds' et al.; Metody Polucheniya Khimicheskikh Reaktivov i Preparatov; vol. 4-5; (1962); p. 20; Chem.Abstr.; vol. 60; 15728g; (1964);,https://www.reaxys.com/reaxys/secured/hopinto.do?context=C&query=CNR.CNR%3D4361511&database=RX&origin=ReaxysOutput&ln=
,SC#N,1732480.0,https://www.reaxys.com/reaxys/secured/hopinto.do?context=S&query=IDE.XRN%3D1732480&database=RX&origin=ReaxysOutput&ln=,(299 of 4000),463-56-9,thiocyanic acid,HSCN,CHNS,59.0916,acyclic,,ZMZDMBWJUHKJPS-UHFFFAOYSA-N,,,,Identification(773); Physical Data(425); Spectra(22); Bioactivity(72),631.0,1435.0,5,,,,,,Article; Rosenheim; Levy; Chemische Berichte; vol. 40; (1907); p. 2168;,https://www.reaxys.com/reaxys/secured/hopinto.do?context=C&query=CNR.CNR%3D1461442&database=RX&origin=ReaxysOutput&ln=
,CC(C)N,605259.0,https://www.reaxys.com/reaxys/secured/hopinto.do?context=S&query=IDE.XRN%3D605259&database=RX&origin=ReaxysOutput&ln=,(300 of 4000),75-31-0,isopropylamine,NH2(CH(CH3)2),C3H9N,59.1112,acyclic,,JJWLVOIRVHMVIS-UHFFFAOYSA-N,,,,Identification(2008); Physical Data(317); Spectra(92); Bioactivity(634),15193.0,12477.0,-86.5,,,Crystallization with 0.5 Mol(s) H2O,,,"Article; Favier, Roland; Rosso, Jean-Claude; Carbonnel, Luce; Bulletin de la Societe Chimique de France; vol. 1; 5-6; (1981); p. 225 - 235;",https://www.reaxys.com/reaxys/secured/hopinto.do?context=C&query=CNR.CNR%3D5666671&database=RX&origin=ReaxysOutput&ln=
,CN(C)C,956566.0,https://www.reaxys.com/reaxys/secured/hopinto.do?context=S&query=IDE.XRN%3D956566&database=RX&origin=ReaxysOutput&ln=,(301 of 4000),75-50-3,trimethylamine,N(CH3)3,C3H9N,59.1112,acyclic,,GETQZCLCWQTVFV-UHFFFAOYSA-N,,,,Identification(10880); Physical Data(767); Spectra(147); Bioactivity(819),6512.0,15436.0,4,,,Crystallization with 10.25 Mol(s) H2O,,,"Article; Zagorski, Z. P.; Journal of Physical Chemistry; vol. 90; 5; (1986); p. 957 - 963;",https://www.reaxys.com/reaxys/secured/hopinto.do?context=C&query=CNR.CNR%3D5777335&database=RX&origin=ReaxysOutput&ln=
,CCCN,1098243.0,https://www.reaxys.com/reaxys/secured/hopinto.do?context=S&query=IDE.XRN%3D1098243&database=RX&origin=ReaxysOutput&ln=,(302 of 4000),107-10-8,propylamine; n-propylamine; PROPANAMINE,(C3H7)NH2,C3H9N,59.1112,acyclic,,WGYKZJWCGVVSQN-UHFFFAOYSA-N,,,,Identification(3005); Physical Data(751); Spectra(146); Bioactivity(639),12715.0,12058.0,-83,,supporting information,,,,"Article; Yamanaka, Shoji; Umemoto, Keita; Zheng, Zhanfeng; Suzuki, Yuta; Matsui, Hiroshi; Toyota, Naoki; Inumaru, Kei; Journal of Materials Chemistry; vol. 22; 21; (2012); p. 10752 - 10762;",https://www.reaxys.com/reaxys/secured/hopinto.do?context=C&query=CNR.CNR%3D20162503&database=RX&origin=ReaxysOutput&ln=