Structure: Image,SMILES,Substance Identification: Reaxys Registry Number,Links to Reaxys,Data Count,CAS Registry Number,Chemical Name,Linear Structure Formula,Molecular Formula,Molecular Weight,Type of Substance,Type and Modification,InChI Key,Composition: Comp. Name,Composition: Comp. Conc.,Composition: Comp. Attrib.,Field Availability,Number of Reactions,Number of References,Melting Point: Melting Point [C],Solvent (Melting Point),Location,Comment (Melting Point),Crystallizes With,Amount (Melting Point) [mol],References,Links to Reaxys.1
,CN(C)C#N,506093.0,https://www.reaxys.com/reaxys/secured/hopinto.do?context=S&query=IDE.XRN%3D506093&database=RX&origin=ReaxysOutput&ln=,(554 of 4000),1467-79-4,"NCNMe2; N,N-dimethylcyanamide; dimethyl cyanamide",(CH3)2NCN,C3H6N2,70.094,acyclic,,OAGOUCJGXNLJNL-UHFFFAOYSA-N,,,,Identification(114); Physical Data(70); Spectra(55); Bioactivity(30),1098.0,586.0,-41.1,,,,,,Article; Witschonke; Analytical Chemistry; vol. 26; (1954); p. 562;,https://www.reaxys.com/reaxys/secured/hopinto.do?context=C&query=CNR.CNR%3D609866&database=RX&origin=ReaxysOutput&ln=
,NCCC#N,1698848.0,https://www.reaxys.com/reaxys/secured/hopinto.do?context=S&query=IDE.XRN%3D1698848&database=RX&origin=ReaxysOutput&ln=,(555 of 4000),151-18-8,2-cyanoethylamine; 3-aminopropionitrile,H2NCH2CH2CN,C3H6N2,70.094,acyclic,,AGSPXMVUFBBBMO-UHFFFAOYSA-N,,,,Identification(463); Physical Data(47); Spectra(21); Bioactivity(99),697.0,951.0,68 - 70,,,,,,Patent; UNIVERSITY OF DELAWARE; UNIVERSITY PATENTS; US4617389; (1986); A;,https://www.reaxys.com/reaxys/secured/hopinto.do?context=C&query=CNR.CNR%3D7111009&database=RX&origin=ReaxysOutput&ln=
,CN=C=NC,1735963.0,https://www.reaxys.com/reaxys/secured/hopinto.do?context=S&query=IDE.XRN%3D1735963&database=RX&origin=ReaxysOutput&ln=,(556 of 4000),4852-30-6,"N,N'-dimethylcarbodiimide; N,N'-Dimethylcarbodiimid; dimethylcarbodiimide",C3H6N2,C3H6N2,70.094,acyclic,,NASVTBDJHWPMOO-UHFFFAOYSA-N,,,,Identification(21); Physical Data(7); Spectra(13),43.0,31.0,-92 - -90,,,,,,Article; Rapi et al.; Journal of the Chemical Society C: Organic; (1971); p. 3827;,https://www.reaxys.com/reaxys/secured/hopinto.do?context=C&query=CNR.CNR%3D2863914&database=RX&origin=ReaxysOutput&ln=
,CCC(C)=C,505975.0,https://www.reaxys.com/reaxys/secured/hopinto.do?context=S&query=IDE.XRN%3D505975&database=RX&origin=ReaxysOutput&ln=,(557 of 4000),563-46-2,2-Methyl-1-butene; 2-methylbutene-1,CH2C(CH3)C2H5,C5H10,70.1344,acyclic,,MHNNAWXXUZQSNM-UHFFFAOYSA-N,,,,Identification(511); Physical Data(159); Spectra(56),657.0,1405.0,-137.56,,,,,,Report; Rossini; Selected values of chemical thermodynamic properties;; ; Article; Streiff et al.; Journal of Research of the National Bureau of Standards (United States); vol. 37; (1946); p. 336; Chem.Abstr.; (1947); p. 2383;,https://www.reaxys.com/reaxys/secured/hopinto.do?context=C&query=CNR.CNR%3D1345819&database=RX&origin=ReaxysOutput&ln=
,CC(C)C=C,505980.0,https://www.reaxys.com/reaxys/secured/hopinto.do?context=S&query=IDE.XRN%3D505980&database=RX&origin=ReaxysOutput&ln=,(558 of 4000),563-45-1,3-Methyl-1-butene; 3-methylbut-1-ene,(CH3)2CHCHCH2,C5H10,70.1344,acyclic,,YHQXBTXEYZIYOV-UHFFFAOYSA-N,,,,Identification(538); Physical Data(146); Spectra(59),645.0,1304.0,-168.5,,,,,,Article; Streiff et al.; Journal of Research of the National Bureau of Standards (United States); vol. 37; (1946); p. 336; Chem.Abstr.; (1947); p. 2383;,https://www.reaxys.com/reaxys/secured/hopinto.do?context=C&query=CNR.CNR%3D1345996&database=RX&origin=ReaxysOutput&ln=
,CCC=CC,969151.0,https://www.reaxys.com/reaxys/secured/hopinto.do?context=S&query=IDE.XRN%3D969151&database=RX&origin=ReaxysOutput&ln=,(559 of 4000),109-68-2,2-pentene; pent-2-ene,CH3CHCHCH2CH3,C5H10,70.1344,acyclic,,QMMOXUPEWRXHJS-UHFFFAOYSA-N,,,,Identification(44); Physical Data(102); Spectra(16),445.0,606.0,-138,,,mixtures of cis-and trans-form of pentene-(2),,,Article; Norris; Reuter; Journal of the American Chemical Society; vol. 49; (1927); p. 2630;,https://www.reaxys.com/reaxys/secured/hopinto.do?context=C&query=CNR.CNR%3D1313871&database=RX&origin=ReaxysOutput&ln=
,CC=C(C)C,1361353.0,https://www.reaxys.com/reaxys/secured/hopinto.do?context=S&query=IDE.XRN%3D1361353&database=RX&origin=ReaxysOutput&ln=,(560 of 4000),513-35-9,2-methyl-but-2-ene; 2-methyl-2-butene; trimethylethene,(CH3)3C2H,C5H10,70.1344,acyclic,,BKOOMYPCSUNDGP-UHFFFAOYSA-N,,,,Identification(1270); Physical Data(355); Spectra(75); Bioactivity(208),3167.0,4127.0,-133.78,,,,,,Article; Streiff et al.; Journal of Research of the National Bureau of Standards (United States); vol. 37; (1946); p. 336; Chem.Abstr.; (1947); p. 2383;,https://www.reaxys.com/reaxys/secured/hopinto.do?context=C&query=CNR.CNR%3D1345996&database=RX&origin=ReaxysOutput&ln=
,CC\C=C/C,1718794.0,https://www.reaxys.com/reaxys/secured/hopinto.do?context=S&query=IDE.XRN%3D1718794&database=RX&origin=ReaxysOutput&ln=,(561 of 4000),627-20-3,(Z)-pent-2-ene; cis-2-pentene,CH3CHCHCH2CH3,C5H10,70.1344,acyclic,,QMMOXUPEWRXHJS-HYXAFXHYSA-N,,,,Identification(543); Physical Data(90); Spectra(46),289.0,1015.0,-151.37,,,,,,Article; Streiff et al.; Journal of Research of the National Bureau of Standards (United States); vol. 37; (1946); p. 336; Chem.Abstr.; (1947); p. 2383;,https://www.reaxys.com/reaxys/secured/hopinto.do?context=C&query=CNR.CNR%3D1345996&database=RX&origin=ReaxysOutput&ln=
,CC\C=C\C,1718795.0,https://www.reaxys.com/reaxys/secured/hopinto.do?context=S&query=IDE.XRN%3D1718795&database=RX&origin=ReaxysOutput&ln=,(562 of 4000),646-04-8,(E)-pent-2-ene; trans-2-pentene,CH3CHCHC2H5,C5H10,70.1344,acyclic,,QMMOXUPEWRXHJS-HWKANZROSA-N,,,,Identification(824); Physical Data(98); Spectra(56); Bioactivity(68),363.0,1321.0,-140.23,,,,,,Article; Streiff et al.; Journal of Research of the National Bureau of Standards (United States); vol. 37; (1946); p. 336; Chem.Abstr.; (1947); p. 2383;,https://www.reaxys.com/reaxys/secured/hopinto.do?context=C&query=CNR.CNR%3D1345996&database=RX&origin=ReaxysOutput&ln=
,CCCC=C,1731629.0,https://www.reaxys.com/reaxys/secured/hopinto.do?context=S&query=IDE.XRN%3D1731629&database=RX&origin=ReaxysOutput&ln=,(563 of 4000),109-67-1,1-penten; PENTEN,(CH2CHCH2CH2CH3),C5H10,70.1344,acyclic,,YWAKXRMUMFPDSH-UHFFFAOYSA-N,,,,Identification(2691); Physical Data(408); Spectra(70); Bioactivity(230),1710.0,4560.0,-165.35,,,,,,"Article; Messerly, J. F.; Todd, S. S.; Finke, H. L.; Lee-Bechtold, S. H.; Guthrie, G. B.; et al.; Journal of Chemical Thermodynamics; vol. 22; 11; (1990); p. 1107 - 1128;",https://www.reaxys.com/reaxys/secured/hopinto.do?context=C&query=CNR.CNR%3D5519564&database=RX&origin=ReaxysOutput&ln=
,CC1(C)CC1,1900188.0,https://www.reaxys.com/reaxys/secured/hopinto.do?context=S&query=IDE.XRN%3D1900188&database=RX&origin=ReaxysOutput&ln=,(564 of 4000),1630-94-0,"1,1-dimethylcyclopropane",CH2CH2C(CH3)2,C5H10,70.1344,isocyclic,,PBIJFSCPEFQXBB-UHFFFAOYSA-N,,,,Identification(63); Physical Data(55); Spectra(28),104.0,213.0,-108.96,,,,,,Article; Shortridge et al.; Journal of the American Chemical Society; vol. 70; (1948); p. 948;,https://www.reaxys.com/reaxys/secured/hopinto.do?context=C&query=CNR.CNR%3D1337410&database=RX&origin=ReaxysOutput&ln=
,C[C@H]1C[C@H]1C,1900191.0,https://www.reaxys.com/reaxys/secured/hopinto.do?context=S&query=IDE.XRN%3D1900191&database=RX&origin=ReaxysOutput&ln=,(565 of 4000),930-18-7,"cis-1,2-dimethylcyclopropane; cis-1,2-Dimethyl-cyclopropan; 1,cis-2-dimethylcyclopropan",C3H4(CH3)2,C5H10,70.1344,isocyclic,,VKJLDXGFBJBTRQ-SYDPRGILSA-N,,,,Identification(24); Physical Data(18); Spectra(18),31.0,71.0,-140.87,,,,,,"Article; Streiff et al.; Analytical Chemistry; vol. 27; (1955); p. 411,414;",https://www.reaxys.com/reaxys/secured/hopinto.do?context=C&query=CNR.CNR%3D1691788&database=RX&origin=ReaxysOutput&ln=
,CC1CCC1,1900193.0,https://www.reaxys.com/reaxys/secured/hopinto.do?context=S&query=IDE.XRN%3D1900193&database=RX&origin=ReaxysOutput&ln=,(566 of 4000),598-61-8,methyl-cyclobutane; Methyl-cyclobutan; Methylcyclopropan,C5H10,C5H10,70.1344,isocyclic,,BDJAEZRIGNCQBZ-UHFFFAOYSA-N,,,,Identification(53); Physical Data(51); Spectra(19),52.0,103.0,-161.51,,,,,,"Article; Lemaire; Livingston; Journal of the American Chemical Society; vol. 74; (1952); p. 5732,5736;",https://www.reaxys.com/reaxys/secured/hopinto.do?context=C&query=CNR.CNR%3D1731363&database=RX&origin=ReaxysOutput&ln=
,CCC1CC1,1900194.0,https://www.reaxys.com/reaxys/secured/hopinto.do?context=S&query=IDE.XRN%3D1900194&database=RX&origin=ReaxysOutput&ln=,(567 of 4000),1191-96-4,ethylcyclopropane; cyclopropylethane; Aethyl-cyclopropan,C5H10,C5H10,70.1344,isocyclic,,FOTXAJDDGPYIFU-UHFFFAOYSA-N,,,,Identification(40); Physical Data(44); Spectra(21),49.0,107.0,-149.41,,,,,,"Article; Van Volkenburgh et al.; Journal of the American Chemical Society; vol. 71; (1949); p. 172,174;",https://www.reaxys.com/reaxys/secured/hopinto.do?context=C&query=CNR.CNR%3D1690709&database=RX&origin=ReaxysOutput&ln=
,C1CCCC1,1900195.0,https://www.reaxys.com/reaxys/secured/hopinto.do?context=S&query=IDE.XRN%3D1900195&database=RX&origin=ReaxysOutput&ln=,(568 of 4000),287-92-3,Cyclopentane; Cyclopentan,(CH2)5,C5H10,70.1344,isocyclic,,RGSFGYAAUTVSQA-UHFFFAOYSA-N,,,,Identification(323); Physical Data(777); Spectra(88); Bioactivity(136),934.0,2080.0,-94.16,,,,,,Letter; Williams; O'Brien; Bardsley; Journal of the American Chemical Society; vol. 123; 4; (2001); p. 737 - 738;,https://www.reaxys.com/reaxys/secured/hopinto.do?context=C&query=CNR.CNR%3D6308999&database=RX&origin=ReaxysOutput&ln=
,C[C@@H]1C[C@H]1C,3193629.0,https://www.reaxys.com/reaxys/secured/hopinto.do?context=S&query=IDE.XRN%3D3193629&database=RX&origin=ReaxysOutput&ln=,(569 of 4000),2402-06-4,"trans-1,2-dimethylcyclopropane",C5H10,C5H10,70.1344,isocyclic,racemate,VKJLDXGFBJBTRQ-RFZPGFLSSA-N,,,,Identification(14); Physical Data(9); Spectra(11),22.0,24.0,-149.57,,,,,,"Article; Streiff et al.; Analytical Chemistry; vol. 27; (1955); p. 411,414;",https://www.reaxys.com/reaxys/secured/hopinto.do?context=C&query=CNR.CNR%3D1691788&database=RX&origin=ReaxysOutput&ln=
,Cl[H].[2H]C([2H])([2H])N,4140467.0,https://www.reaxys.com/reaxys/secured/hopinto.do?context=S&query=IDE.XRN%3D4140467&database=RX&origin=ReaxysOutput&ln=,(570 of 4000),7436-22-8,methyl-d3-amine hydrochloride; methan-d3-amine hydrochloride; deuterated methylamine hydrochloride; trideuteromethylamine hydrochloride; methyl-d3-ammonium chloride; d3-methylamine hydrochloride; methylamine-d3 hydrochloride; trideuterated methylamine hydrochloride; trideuteriomethanamine hydrochloride,CD3NH3(1+)*Cl(1-)=(CD3NH3)Cl,CH6N*Cl,70.4945,acyclic; Isotope or isotope containing compound,,NQMRYBIKMRVZLB-NIIDSAIPSA-N,,,,Identification(25); Physical Data(11); Spectra(13),125.0,111.0,215 - 220,ethanol; acetone,,,,,"Article; Saavedra, Joseph E.; Journal of Organic Chemistry; vol. 48; 14; (1983); p. 2388 - 2392;",https://www.reaxys.com/reaxys/secured/hopinto.do?context=C&query=CNR.CNR%3D5579376&database=RX&origin=ReaxysOutput&ln=
,[H]B([H])[H].[H]B([H])N(C)C,3946982.0,https://www.reaxys.com/reaxys/secured/hopinto.do?context=S&query=IDE.XRN%3D3946982&database=RX&origin=ReaxysOutput&ln=,(571 of 4000),,Dimethylamino-diboran,(CH3)2NBH2*BH3,BH3*C2H8BN,70.738,acyclic,,PGGKCQSUAMWIEE-UHFFFAOYSA-N,,,,Identification(8); Physical Data(1); Spectra(2),13.0,10.0,-56,,,,,,"Article; Noeth,H.; Mikulaschek,G.; Chemische Berichte; vol. 94; (1961); p. 634 - 641;; ; Article; Noeth,H.; Schraegle,W.; Chemische Berichte; vol. 97; (1964); p. 2218 - 2229;",https://www.reaxys.com/reaxys/secured/hopinto.do?context=C&query=CNR.CNR%3D36349&database=RX&origin=ReaxysOutput&ln=
,[H]B([H])NCCC,2408254.0,https://www.reaxys.com/reaxys/secured/hopinto.do?context=S&query=IDE.XRN%3D2408254&database=RX&origin=ReaxysOutput&ln=,(575 of 4000),37479-87-1,n-Proylamino-dihydrido-boran; (n-propylamino)dihydroborane,(C3H7)NHBH2,C3H10BN,70.9301,acyclic,,QPQGKYLTEYMBSN-UHFFFAOYSA-N,,,,Identification(6); Physical Data(3); Spectra(3),7.0,9.0,39 - 41,,,,,,"Article; Niedenzu,K. et al.; Chemische Berichte; vol. 105; (1972); p. 2258 - 2263;",https://www.reaxys.com/reaxys/secured/hopinto.do?context=C&query=CNR.CNR%3D41404&database=RX&origin=ReaxysOutput&ln=
,[H][B-]([H])([H])[N+]1(C)CC1,9616579.0,https://www.reaxys.com/reaxys/secured/hopinto.do?context=S&query=IDE.XRN%3D9616579&database=RX&origin=ReaxysOutput&ln=,(576 of 4000),21806-29-1,,N(CH3)(BH3)CH2CH2,C3H10BN,70.9301,heterocyclic; Coordination compound,,LTSQVJSAPMIWJH-UHFFFAOYSA-N,,,,Identification(6); Physical Data(2); Spectra(5),4.0,5.0,57 - 58,,,,,,"Article; Robinson, Brian P.; Adams; Tetrahedron Letters; vol. 9; 59; (1968); p. 6169 - 6171;; ; Article; Gmelin Handbuch der Anorganischen Chemie; vol. B: B-Verb.14; 3.8.2.2, page 110 - 114; (from Gmelin)",https://www.reaxys.com/reaxys/secured/hopinto.do?context=C&query=CNR.CNR%3D5199578&database=RX&origin=ReaxysOutput&ln=
,[SiH3]C#N.[H]B([H])[H],3669751.0,https://www.reaxys.com/reaxys/secured/hopinto.do?context=S&query=IDE.XRN%3D3669751&database=RX&origin=ReaxysOutput&ln=,(579 of 4000),,cyano-silane; compound with borane; Cyan-silan; Verbindung mit Boran,H3SiCN*BH3,BH3*CH3NSi,70.9618,acyclic,,FWHPQSNUFRWNMY-UHFFFAOYSA-N,,,,Identification(5); Physical Data(1),7.0,6.0,35,,,Decomp.,,,"Article; Evers et al.; Journal of the American Chemical Society; vol. 81; (1959); p. 4493,4494;",https://www.reaxys.com/reaxys/secured/hopinto.do?context=C&query=CNR.CNR%3D1278081&database=RX&origin=ReaxysOutput&ln=
,FN(F)F,13814992.0,https://www.reaxys.com/reaxys/secured/hopinto.do?context=S&query=IDE.XRN%3D13814992&database=RX&origin=ReaxysOutput&ln=,(581 of 4000),7783-54-2,nitrogen trifluoride,FNF2,F3N,71.0019,,,GVGCUCJTUSOZKP-UHFFFAOYSA-N,,,,Identification(280); Physical Data(154); Spectra(31); Bioactivity(37),285.0,707.0,-206.78,,,,,,"Article; Kafarov, V. V.; Dorokhov, I. N.; Vetokhin, V. N.; Volkov, L. P.; Doklady Physical Chemistry; vol. 314; (1990); p. 683 - 686; Dokl. Phys. Chem. (Transl. of Dokl. Akad. Nauk.); vol. 314; (1990); p. 201 - 205; (from Gmelin)",https://www.reaxys.com/reaxys/secured/hopinto.do?context=C&query=CNR.CNR%3D7729612&database=RX&origin=ReaxysOutput&ln=
,N#C[15N]=[15N]#[15N],2080733.0,https://www.reaxys.com/reaxys/secured/hopinto.do?context=S&query=IDE.XRN%3D2080733&database=RX&origin=ReaxysOutput&ln=,(582 of 4000),,Cyanazid<15N3>,CN(15)N3,CN4,71.0177,acyclic,,KWEDUNSJJZVRKR-FRSWOAELSA-N,,,,Identification(5); Physical Data(1); Spectra(1),1.0,1.0,93.5 - 94.5,,,,,,"Article; Mueller,J.; Zeitschrift fur Naturforschung, Teil B: Anorganische Chemie, Organische Chemie; vol. 34; (1979); p. 437 - 441;",https://www.reaxys.com/reaxys/secured/hopinto.do?context=C&query=CNR.CNR%3D303962&database=RX&origin=ReaxysOutput&ln=
,O=CN=N#N,13904321.0,https://www.reaxys.com/reaxys/secured/hopinto.do?context=S&query=IDE.XRN%3D13904321&database=RX&origin=ReaxysOutput&ln=,(583 of 4000),,formyl azide; azidoketone,CHN3O,CHN3O,71.0384,,,XJRPXNWUCVZVJP-UHFFFAOYSA-N,,,,Identification(22); Physical Data(8); Spectra(8),13.0,19.0,-50.5,,,,,,"Article; Zeng, Xiaoqing; Bernhardt, Eduard; Beckers, Helmut; Banert, Klaus; Hagedorn, Manfred; Liu, Hailiang; Angewandte Chemie - International Edition; vol. 52; 12; (2013); p. 3503 - 3506; Angew. Chem.; vol. 125; 12; (2013); p. 3587 - 3591,5;",https://www.reaxys.com/reaxys/secured/hopinto.do?context=C&query=CNR.CNR%3D35475359&database=RX&origin=ReaxysOutput&ln=
,[F-].OO.[H][N+]([H])([H])[H],16528728.0,https://www.reaxys.com/reaxys/secured/hopinto.do?context=S&query=IDE.XRN%3D16528728&database=RX&origin=ReaxysOutput&ln=,(584 of 4000),12378-32-4,ammonium fluoride peroxosolvate,NH4(1+)*F(1-)*H2O2=NH4F*H2O2,F*H2O2*H4N,71.0515,,,BCKPSZOVMCRZEE-UHFFFAOYSA-N,,,,Identification(5); Physical Data(6); Spectra(2),1.0,3.0,55 - 64,,,,,,"Article; Titova, K. V.; Komakova, E. I.; Rosolovskii, V. Ya.; Russian Journal of Inorganic Chemistry; vol. 35; (1990); p. 459 - 462; Russ. J. Inorg. Chem. (Transl. of Zh. Neorg. Khim.); vol. 35; (1990); p. 819 - 824; (from Gmelin)",https://www.reaxys.com/reaxys/secured/hopinto.do?context=C&query=CNR.CNR%3D7766936&database=RX&origin=ReaxysOutput&ln=
,C1CN=CO1,103907.0,https://www.reaxys.com/reaxys/secured/hopinto.do?context=S&query=IDE.XRN%3D103907&database=RX&origin=ReaxysOutput&ln=,(585 of 4000),504-77-8,"4,5-dihydro-1,3-oxazol; oxazoline",C3H5NO,C3H5NO,71.0788,heterocyclic,,IMSODMZESSGVBE-UHFFFAOYSA-N,,,,Identification(1372); Physical Data(12); Spectra(19),54.0,1447.0,96 - 98,,,,,,Patent; BASF SE; DE1923022; (1970); A1; Chem.Abstr.; vol. 74; 22818; Chem.Abstr.; vol. 74; 22818;,https://www.reaxys.com/reaxys/secured/hopinto.do?context=C&query=CNR.CNR%3D2991935&database=RX&origin=ReaxysOutput&ln=
,O=C1CCN1,104563.0,https://www.reaxys.com/reaxys/secured/hopinto.do?context=S&query=IDE.XRN%3D104563&database=RX&origin=ReaxysOutput&ln=,(586 of 4000),930-21-2,2-azetidinone,C2H4NHCO,C3H5NO,71.0788,heterocyclic,,MNFORVFSTILPAW-UHFFFAOYSA-N,,,,Identification(381); Physical Data(41); Spectra(35); Bioactivity(33),353.0,623.0,349.2,,,,,,Article; Emel'Yanenko; Verevkin; Ralys; Turovtsev; Orlov; Russian Journal of Physical Chemistry; vol. 86; 10; (2012); p. 1493 - 1499;,https://www.reaxys.com/reaxys/secured/hopinto.do?context=C&query=CNR.CNR%3D20198955&database=RX&origin=ReaxysOutput&ln=
,CC1NC1=O,385695.0,https://www.reaxys.com/reaxys/secured/hopinto.do?context=S&query=IDE.XRN%3D385695&database=RX&origin=ReaxysOutput&ln=,(587 of 4000),,Alanin-N-carboxyanhydrid,C3H5NO,C3H5NO,71.0788,heterocyclic,,OTTSALGGSVUJHS-UHFFFAOYSA-N,,,,Identification(5); Physical Data(1),,1.0,89 - 90,,,,,,"Article; Cernosek et al.; Biochemistry; vol. 13; (1974); p. 1252,1257;",https://www.reaxys.com/reaxys/secured/hopinto.do?context=C&query=CNR.CNR%3D2590438&database=RX&origin=ReaxysOutput&ln=
,NC(=O)C=C,605349.0,https://www.reaxys.com/reaxys/secured/hopinto.do?context=S&query=IDE.XRN%3D605349&database=RX&origin=ReaxysOutput&ln=,(588 of 4000),79-06-1,2-propenamide; acrylamid,H2NC(O)CHCH2,C3H5NO,71.0788,acyclic,,HRPVXLWXLXDGHG-UHFFFAOYSA-N,,,,Identification(16170); Physical Data(153); Spectra(114); Bioactivity(1253),2734.0,18112.0,85 - 86,,,,,,"Article; Veisi, Hojat; Maleki, Behrooz; Hamelian, Mona; Ashrafi, Samaneh Sedigh; RSC Advances; vol. 5; 9; (2015); p. 6365 - 6371;",https://www.reaxys.com/reaxys/secured/hopinto.do?context=C&query=CNR.CNR%3D64671524&database=RX&origin=ReaxysOutput&ln=
,CC(O)C#N,605366.0,https://www.reaxys.com/reaxys/secured/hopinto.do?context=S&query=IDE.XRN%3D605366&database=RX&origin=ReaxysOutput&ln=,(589 of 4000),78-97-7,2-hydroxy-propionitrile; Lactonitrile,CH3CHOHCN,C3H5NO,71.0788,acyclic,,WOFDVDFSGLBFAC-UHFFFAOYSA-N,,,,Identification(152); Physical Data(47); Spectra(24); Bioactivity(25),272.0,437.0,-40,,,,,,Article; Timmermans; Mattaar; Bulletin des Societes Chimiques Belges; vol. 30; (1921); p. 214; Chemisches Zentralblatt; vol. 92; III; (1921); p. 1266;,https://www.reaxys.com/reaxys/secured/hopinto.do?context=C&query=CNR.CNR%3D559456&database=RX&origin=ReaxysOutput&ln=
,OCCC#N,635773.0,https://www.reaxys.com/reaxys/secured/hopinto.do?context=S&query=IDE.XRN%3D635773&database=RX&origin=ReaxysOutput&ln=,(590 of 4000),109-78-4,3-Hydroxypropionitrile; ethylene cyanohydrin,HO(CH2)2CN,C3H5NO,71.0788,acyclic,,WSGYTJNNHPZFKR-UHFFFAOYSA-N,,,,Identification(728); Physical Data(88); Spectra(48); Bioactivity(81),1098.0,1597.0,-45,,,stabile Modifikation.,,,Article; Schneider; Giguere; Journal de Chimie Physique et de Physico-Chimie Biologique; vol. 67; (1970); p. 712;,https://www.reaxys.com/reaxys/secured/hopinto.do?context=C&query=CNR.CNR%3D1497189&database=RX&origin=ReaxysOutput&ln=