Structure: Image,SMILES,Substance Identification: Reaxys Registry Number,Links to Reaxys,Data Count,CAS Registry Number,Chemical Name,Linear Structure Formula,Molecular Formula,Molecular Weight,Type of Substance,Type and Modification,InChI Key,Composition: Comp. Name,Composition: Comp. Conc.,Composition: Comp. Attrib.,Field Availability,Number of Reactions,Number of References,Melting Point: Melting Point [C],Solvent (Melting Point),Location,Comment (Melting Point),Crystallizes With,Amount (Melting Point) [mol],References,Links to Reaxys.1
,CP(C)F,1918070.0,https://www.reaxys.com/reaxys/secured/hopinto.do?context=S&query=IDE.XRN%3D1918070&database=RX&origin=ReaxysOutput&ln=,(979 of 4000),507-15-3,Dimethylfluorphosphin,PF(CH3)2,C2H6FP,80.0418,acyclic,,LEGMSOILNHRRRA-UHFFFAOYSA-N,,,,Identification(13); Physical Data(8); Spectra(13),3.0,17.0,-109,,,,,,"Article; Seel,F. et al.; Angewandte Chemie; vol. 79; (1967); p. 686;; ; Article; Seel; Rudolph; Zeitschrift fur Anorganische und Allgemeine Chemie; vol. 363; (1968); p. 233,235;",https://www.reaxys.com/reaxys/secured/hopinto.do?context=C&query=CNR.CNR%3D100700&database=RX&origin=ReaxysOutput&ln=
,[2H]C1([2H])OC([2H])([2H])C([2H])([2H])C1([2H])[2H],111854.0,https://www.reaxys.com/reaxys/secured/hopinto.do?context=S&query=IDE.XRN%3D111854&database=RX&origin=ReaxysOutput&ln=,(980 of 4000),1693-74-9,tetrahydrofuran-d8; thf-d8,OC4D8,C4H8O,80.0434,heterocyclic,,WYURNTSHIVDZCO-SVYQBANQSA-N,,,,Identification(29); Physical Data(38); Spectra(17),526.0,397.0,-108.36,,,,,,"Article; Soencksen, Ludger; Gradert, Christian; Krahmer, Jan; Naether, Christian; Tuczek, Felix; Inorganic Chemistry; vol. 52; 11; (2013); p. 6576 - 6589;",https://www.reaxys.com/reaxys/secured/hopinto.do?context=C&query=CNR.CNR%3D35497900&database=RX&origin=ReaxysOutput&ln=
,N.ON(=O)=O,10547008.0,https://www.reaxys.com/reaxys/secured/hopinto.do?context=S&query=IDE.XRN%3D10547008&database=RX&origin=ReaxysOutput&ln=,(981 of 4000),,ammonium nitrate; NH4NO3,HNO3*NH3,HNO3*H3N,80.0434,Coordination compound,,PRORZGWHZXZQMV-UHFFFAOYSA-N,,,,Identification(643); Physical Data(21); Spectra(11); Bioactivity(55),87.0,771.0,168,,,,,,"Article; Matsunaga, Hiroki; Katoh, Katsumi; Habu, Hiroto; Noda, Masaru; Miyake, Atsumi; Journal of Thermal Analysis and Calorimetry; vol. 135; 5; (2019); p. 2677 - 2685;",https://www.reaxys.com/reaxys/secured/hopinto.do?context=C&query=CNR.CNR%3D75375072&database=RX&origin=ReaxysOutput&ln=
,[NH4+].[O-]N(=O)=O,13203931.0,https://www.reaxys.com/reaxys/secured/hopinto.do?context=S&query=IDE.XRN%3D13203931&database=RX&origin=ReaxysOutput&ln=,(982 of 4000),,ammonium nitrate,NH4(1+)*NO3(1-),H4N*NO3,80.0434,Isotope or isotope containing compound; Coordination compound,,DVARTQFDIMZBAA-UHFFFAOYSA-O,,,,Identification(8417); Physical Data(821); Spectra(76); Bioactivity(494),866.0,9786.0,165.2 - 167.2,,,,,,Conference Paper; Kaljuvee; Rudjak; Edro; Trikkel; Journal of Thermal Analysis and Calorimetry; vol. 97; 1; (2009); p. 215 - 221; (from Gmelin),https://www.reaxys.com/reaxys/secured/hopinto.do?context=C&query=CNR.CNR%3D8813521&database=RX&origin=ReaxysOutput&ln=
,[O-]N(=O)=O.[H][N+]([H])([H])[H],16014435.0,https://www.reaxys.com/reaxys/secured/hopinto.do?context=S&query=IDE.XRN%3D16014435&database=RX&origin=ReaxysOutput&ln=,(983 of 4000),,"ammonium nitrate; ammonium nitrate NH4NO3, I",NH4(1+)*NO3(1-) = NH4NO3,H4N*NO3,80.0434,,I,DVARTQFDIMZBAA-UHFFFAOYSA-O,,,,Identification(5); Physical Data(16); Spectra(1),,18.0,166.8,,,,,,Article; Bulavchenko; Demidova; Podlipskaya; Tatarchuk; Druzhinina; Alekseev; Logvinenko; Drebushchak; Russian Journal of Inorganic Chemistry; vol. 57; 6; (2012); p. 769 - 776; (from Gmelin),https://www.reaxys.com/reaxys/secured/hopinto.do?context=C&query=CNR.CNR%3D20181744&database=RX&origin=ReaxysOutput&ln=
,O=C(C#N)C#N,1699394.0,https://www.reaxys.com/reaxys/secured/hopinto.do?context=S&query=IDE.XRN%3D1699394&database=RX&origin=ReaxysOutput&ln=,(984 of 4000),1115-12-4,carbonyl cyanide,OC(CN)2,C3N2O,80.0458,acyclic,,JSGHQDAEHDRLOI-UHFFFAOYSA-N,,,,Identification(27); Physical Data(56); Spectra(24); Bioactivity(8),189.0,118.0,-38,,,,,,Article; Martin; Organic Syntheses; vol. 51; (1971); p. 70;,https://www.reaxys.com/reaxys/secured/hopinto.do?context=C&query=CNR.CNR%3D4343551&database=RX&origin=ReaxysOutput&ln=
,N#CN=NC#N,506215.0,https://www.reaxys.com/reaxys/secured/hopinto.do?context=S&query=IDE.XRN%3D506215&database=RX&origin=ReaxysOutput&ln=,(985 of 4000),1557-57-9,Dicyano-diazene; Azodicarbonitril,N4C2,C2N4,80.0488,acyclic,,NEOOATUUDRFZSN-UHFFFAOYSA-N,,,,Identification(7); Physical Data(11); Spectra(6),9.0,15.0,50 - 55,,,Decomposition,,,"Article; Hutchins, Mary Gail Kinzer; Swern, Daniel; Journal of Organic Chemistry; vol. 47; 25; (1982); p. 4847 - 4850;",https://www.reaxys.com/reaxys/secured/hopinto.do?context=C&query=CNR.CNR%3D5636689&database=RX&origin=ReaxysOutput&ln=
,N#C\N=N\C#N,2036962.0,https://www.reaxys.com/reaxys/secured/hopinto.do?context=S&query=IDE.XRN%3D2036962&database=RX&origin=ReaxysOutput&ln=,(986 of 4000),38055-41-3,Azodicarbonitril,C2N4,C2N4,80.0488,acyclic,,NEOOATUUDRFZSN-AATRIKPKSA-N,,,,Identification(8); Physical Data(3); Spectra(4),2.0,5.0,35 - 37,,,,,,"Article; Bak; Jansen; Journal of Molecular Structure; vol. 11; (1972); p. 25,27-29;",https://www.reaxys.com/reaxys/secured/hopinto.do?context=C&query=CNR.CNR%3D5155169&database=RX&origin=ReaxysOutput&ln=
,[2H]\C(C#N)=C(\[2H])C#N,6186252.0,https://www.reaxys.com/reaxys/secured/hopinto.do?context=S&query=IDE.XRN%3D6186252&database=RX&origin=ReaxysOutput&ln=,(987 of 4000),,<2H2>fumaronitrile,C4D2N2,C4H2N2,80.0574,acyclic,,KYPOHTVBFVELTG-FBBQFRKLSA-N,,,,Identification(5); Physical Data(1),3.0,2.0,95 - 96,ethyl acetate; hexane,,,,,"Article; Fishbein, James C.; Jencks, William P.; Journal of the American Chemical Society; vol. 110; 15; (1988); p. 5075 - 5086;",https://www.reaxys.com/reaxys/secured/hopinto.do?context=C&query=CNR.CNR%3D5765190&database=RX&origin=ReaxysOutput&ln=
,[15N]#C\C=C\C#[15N],2498585.0,https://www.reaxys.com/reaxys/secured/hopinto.do?context=S&query=IDE.XRN%3D2498585&database=RX&origin=ReaxysOutput&ln=,(988 of 4000),24960-30-3,Fumarnitril-N15,C4H2(15)N2,C4H2N2,80.0599,acyclic,,KYPOHTVBFVELTG-ZAKLTMSXSA-N,,,,Identification(5); Physical Data(2); Spectra(1),1.0,2.0,94.5 - 95.5,,,,,,Article; Smirnow et al.; Journal of Organic Chemistry USSR (English Translation); vol. 5; (1969); p. 1359; Zhurnal Organicheskoi Khimii; vol. 5; (1969); p. 1392;; ; Article; Smirnow et al.; Journal of Organic Chemistry USSR (English Translation); vol. 5; (1969); p. 1324; Zhurnal Organicheskoi Khimii; vol. 5; (1969); p. 1355;,https://www.reaxys.com/reaxys/secured/hopinto.do?context=C&query=CNR.CNR%3D4569852&database=RX&origin=ReaxysOutput&ln=
,O=S(=O)=O,3535376.0,https://www.reaxys.com/reaxys/secured/hopinto.do?context=S&query=IDE.XRN%3D3535376&database=RX&origin=ReaxysOutput&ln=,(989 of 4000),7446-11-9,sulfur trioxide; Sulphur trioxide,SO3,O3S,80.0642,Isotope or isotope containing compound,,AKEJUJNQAAGONA-UHFFFAOYSA-N,,,,Identification(2045); Physical Data(613); Spectra(71); Bioactivity(265),2024.0,5279.0,16.9,,,,,,"Article; Biltz, W.; Huelsmann, O.; Zeitschrift fur anorganische Chemie; vol. 207; (1932); p. 377 - 384;; ; Article; Gmelin Handbuch der Anorganischen Chemie; vol. S: MVol.B1; 151, page 332 - 334; (from Gmelin)",https://www.reaxys.com/reaxys/secured/hopinto.do?context=C&query=CNR.CNR%3D7400811&database=RX&origin=ReaxysOutput&ln=
,CC(C)(F)F,1731130.0,https://www.reaxys.com/reaxys/secured/hopinto.do?context=S&query=IDE.XRN%3D1731130&database=RX&origin=ReaxysOutput&ln=,(993 of 4000),420-45-1,"2,2-difluoropropane; 2,2-Difluor-propan; 2,2-Difluoropropan",C3H6F2,C3H6F2,80.0774,acyclic,,YZXSQDNPKVBDOG-UHFFFAOYSA-N,,,,Identification(50); Physical Data(37); Spectra(38),29.0,89.0,-104.8,,,,,,Article; Grosse; Linn; Journal of the American Chemical Society; vol. 64; (1842); p. 2291;,https://www.reaxys.com/reaxys/secured/hopinto.do?context=C&query=CNR.CNR%3D1333299&database=RX&origin=ReaxysOutput&ln=
,O1C2C=C=CC12,1362061.0,https://www.reaxys.com/reaxys/secured/hopinto.do?context=S&query=IDE.XRN%3D1362061&database=RX&origin=ReaxysOutput&ln=,(994 of 4000),,,C5H4O,C5H4O,80.0862,heterocyclic,,HSOMXKRVPOONHI-UHFFFAOYSA-N,,,,Identification(6); Physical Data(1),1.0,1.0,50.5 - 51.5,,,,,,Article; Gasic et al.; Journal of the American Chemical Society; vol. 89; (1967); p. 6382;,https://www.reaxys.com/reaxys/secured/hopinto.do?context=C&query=CNR.CNR%3D3310461&database=RX&origin=ReaxysOutput&ln=
,O=C\C=C\C#C,1698481.0,https://www.reaxys.com/reaxys/secured/hopinto.do?context=S&query=IDE.XRN%3D1698481&database=RX&origin=ReaxysOutput&ln=,(995 of 4000),34501-90-1; 65388-78-5; 34501-85-4,(E)-pent-2-en-4-yn-1-al; (E)-Pent-2-en-4-ynal; trans-2-Penten-4-ynal; trans-2-Penten-4-in-al; pent-2t-en-4-ynal; Pent-2t-en-4-inal,C5H4O,C5H4O,80.0862,acyclic,,LXRPWKJWAMRZSW-ONEGZZNKSA-N,,,,Identification(12); Physical Data(3); Spectra(10),44.0,13.0,18.5 - 19,pentane,,,,,"Article; Bell et al.; Journal of the Chemical Society; (1958); p. 1313,1320;",https://www.reaxys.com/reaxys/secured/hopinto.do?context=C&query=CNR.CNR%3D1191664&database=RX&origin=ReaxysOutput&ln=
,OC(C#C)C#C,1735650.0,https://www.reaxys.com/reaxys/secured/hopinto.do?context=S&query=IDE.XRN%3D1735650&database=RX&origin=ReaxysOutput&ln=,(996 of 4000),56598-53-9,"Diethinylcarbinol; 1,4-pentadiyn-3-ol; penta-1,4-diyn-3-ol; Penta-1,4-diin-3-ol",HOCH(C2H)2,C5H4O,80.0862,acyclic,,BKDYPNZJRPEUEI-UHFFFAOYSA-N,,,,Identification(13); Physical Data(7); Spectra(5),61.0,38.0,55,,,Method: subl. sample,,,"Article; Wille,F.; Strasser,R.; Chemische Berichte; vol. 94; (1961); p. 1606 - 1611;",https://www.reaxys.com/reaxys/secured/hopinto.do?context=C&query=CNR.CNR%3D36464&database=RX&origin=ReaxysOutput&ln=
,OCC#CC#C,1735799.0,https://www.reaxys.com/reaxys/secured/hopinto.do?context=S&query=IDE.XRN%3D1735799&database=RX&origin=ReaxysOutput&ln=,(997 of 4000),41345-53-3,"2,4-pentadiyne-1-ol; penta-2,4-diyn-1-ol; 2,4-pentadiyn-1-ol; 2,4-pentadiynol; pent-2,4-diyn-1-ol; Pentadiin-(2,4)-ol-(1); Pentadiin-(1.3)-ol-(5)",C5H4O,C5H4O,80.0862,acyclic,,UZPGJRUGZGUXDE-UHFFFAOYSA-N,,,,Identification(25); Physical Data(14); Spectra(27),136.0,52.0,26 - 28,pentane,,,,,"Article; Armitage; Whiting; Journal of the Chemical Society; (1952); p. 2005,2009;",https://www.reaxys.com/reaxys/secured/hopinto.do?context=C&query=CNR.CNR%3D1176866&database=RX&origin=ReaxysOutput&ln=
,C1=CN=CN=C1,103894.0,https://www.reaxys.com/reaxys/secured/hopinto.do?context=S&query=IDE.XRN%3D103894&database=RX&origin=ReaxysOutput&ln=,(998 of 4000),289-95-2,PYRIMIDINE,(C4H4N2),C4H4N2,80.0892,heterocyclic,,CZPWVGJYEJSRLH-UHFFFAOYSA-N,,,,Identification(10119); Physical Data(311); Spectra(226); Bioactivity(555),730.0,10914.0,21 - 22.5,,,,,,"Article; Mantescu et al.; Journal of Labelled Compounds; vol. 1; (1965); p. 178,181;",https://www.reaxys.com/reaxys/secured/hopinto.do?context=C&query=CNR.CNR%3D2709179&database=RX&origin=ReaxysOutput&ln=
,C1=CN=CC=N1,103905.0,https://www.reaxys.com/reaxys/secured/hopinto.do?context=S&query=IDE.XRN%3D103905&database=RX&origin=ReaxysOutput&ln=,(999 of 4000),290-37-9,"1,4-pyrazine; pyridazine; PYRAZINE",(NCHCH)2,C4H4N2,80.0892,heterocyclic,,KYQCOXFCLRTKLS-UHFFFAOYSA-N,,,,Identification(4803); Physical Data(528); Spectra(329); Bioactivity(368),2607.0,6866.0,120.68,,,,,,"Article; Fang, Lan; Ma, Yiming; Xiao, Yuntian; Li, Zhonghua; Gao, Zhenguo; Wu, Songgu; Rohani, Sohrab; Gong, Junbo; Crystal Growth and Design; vol. 22; 3; (2022); p. 1707 - 1719;",https://www.reaxys.com/reaxys/secured/hopinto.do?context=C&query=CNR.CNR%3D115536426&database=RX&origin=ReaxysOutput&ln=
,C1=CN=NC=C1,103906.0,https://www.reaxys.com/reaxys/secured/hopinto.do?context=S&query=IDE.XRN%3D103906&database=RX&origin=ReaxysOutput&ln=,(1000 of 4000),289-80-5,"1,2-diazine; PYRIDAZINE",C4N2H4,C4H4N2,80.0892,heterocyclic,,PBMFSQRYOILNGV-UHFFFAOYSA-N,,,,Identification(1431); Physical Data(256); Spectra(163); Bioactivity(113),844.0,2109.0,8,,Page/Page column 22,,,,Patent; AGILENT TECHNOLOGIES INC; US9297035; (2016); B2;,https://www.reaxys.com/reaxys/secured/hopinto.do?context=C&query=CNR.CNR%3D68716320&database=RX&origin=ReaxysOutput&ln=
,N#CCCC#N,1098380.0,https://www.reaxys.com/reaxys/secured/hopinto.do?context=S&query=IDE.XRN%3D1098380&database=RX&origin=ReaxysOutput&ln=,(1001 of 4000),110-61-2,butanedinitrile; succinonitrile,(CH2CN)2,C4H4N2,80.0892,acyclic,,IAHFWCOBPZCAEA-UHFFFAOYSA-N,,,,Identification(844); Physical Data(218); Spectra(66); Bioactivity(72),432.0,1336.0,58.1,,,,,,"Article; Bi, Jiaying; Mu, Daobin; Wu, Borong; Fu, Jiale; Yang, Hao; Mu, Ge; Zhang, Ling; Wu, Feng; Journal of Materials Chemistry A; vol. 8; 2; (2020); p. 706 - 713;",https://www.reaxys.com/reaxys/secured/hopinto.do?context=C&query=CNR.CNR%3D78777893&database=RX&origin=ReaxysOutput&ln=
,CC(C#N)C#N,1737753.0,https://www.reaxys.com/reaxys/secured/hopinto.do?context=S&query=IDE.XRN%3D1737753&database=RX&origin=ReaxysOutput&ln=,(1002 of 4000),3696-36-4,2-methylmalononitrile; methylmalononitrile; 2-methylpropanedinitrile; 2-methylmalonitrile,CH3CH(CN)2,C4H4N2,80.0892,acyclic,,LXUTYOVUICAOGH-UHFFFAOYSA-N,,,,Identification(44); Physical Data(20); Spectra(30),231.0,124.0,32 - 34,,Paragraph 0041,,,,Patent; HEBEI JIUTIAN MEDICINE CHEMICAL; CN105061209; (2017); B;,https://www.reaxys.com/reaxys/secured/hopinto.do?context=C&query=CNR.CNR%3D71773847&database=RX&origin=ReaxysOutput&ln=
,[C-]#[N+]CCC#N,6186482.0,https://www.reaxys.com/reaxys/secured/hopinto.do?context=S&query=IDE.XRN%3D6186482&database=RX&origin=ReaxysOutput&ln=,(1003 of 4000),,β-cyanoethylisocyanide; 3-isocyanopropanenitrile,C4H4N2,C4H4N2,80.0892,acyclic,,VNKVCUYBOPCJEY-UHFFFAOYSA-N,,,,Identification(14); Physical Data(3); Spectra(4),34.0,11.0,32,,supporting information,,,,"Article; Kroon, Edwin; Kurpiewska, Katarzyna; Kalinowska-Tłuścik, Justyna; Dömling, Alexander; Organic Letters; vol. 18; 19; (2016); p. 4762 - 4765;",https://www.reaxys.com/reaxys/secured/hopinto.do?context=C&query=CNR.CNR%3D69739420&database=RX&origin=ReaxysOutput&ln=
,[2H]C1=CC=C([2H])C=C1,2037213.0,https://www.reaxys.com/reaxys/secured/hopinto.do?context=S&query=IDE.XRN%3D2037213&database=RX&origin=ReaxysOutput&ln=,(1004 of 4000),1684-46-4,"1,4-dideuterobenzene; 1,4-Dideuterio-benzol; p-Dideuteriobenzol; benzene-1,4-d2; 1,4-Dideuterobenzol; <1,4-D2>Benzene; <1,4,-2H(2)>Benzol; p-Dideuterobenzol",C6H4(2)H2,C6H6,80.0978,isocyclic,,UHOVQNZJYSORNB-UPXKZQJYSA-N,,,,Identification(10); Physical Data(19); Spectra(28),14.0,63.0,5.9,,,,,,"Article; Weldon; Wilson; Journal of the Chemical Society; (1946); p. 235,238;",https://www.reaxys.com/reaxys/secured/hopinto.do?context=C&query=CNR.CNR%3D1696177&database=RX&origin=ReaxysOutput&ln=
,CS(O)=O,1734750.0,https://www.reaxys.com/reaxys/secured/hopinto.do?context=S&query=IDE.XRN%3D1734750&database=RX&origin=ReaxysOutput&ln=,(1005 of 4000),17696-73-0,methylsulfinic acid; methanesulfinic acid; methylsulphinylalcohol,HO2SCH3,CH4O2S,80.1076,acyclic,,XNEFVTBPCXGIRX-UHFFFAOYSA-N,,,,Identification(208); Physical Data(24); Spectra(13),114.0,269.0,40 - 42,,,,,,Article; Seff et al.; Acta crystallographica. Section B: Structural crystallography and crystal chemistry; vol. 25; (1969); p. 350;,https://www.reaxys.com/reaxys/secured/hopinto.do?context=C&query=CNR.CNR%3D1253651&database=RX&origin=ReaxysOutput&ln=
,C[S@@](O)=O,9616513.0,https://www.reaxys.com/reaxys/secured/hopinto.do?context=S&query=IDE.XRN%3D9616513&database=RX&origin=ReaxysOutput&ln=,(1006 of 4000),,(S)-methanesulfinic acid,CH4O2S,CH4O2S,80.1076,acyclic,,XNEFVTBPCXGIRX-UHFFFAOYSA-N,,,,Identification(7); Physical Data(2),,2.0,40 - 42,,,,,,"Article; Nakashima, Yusuke; Shimizu, Toshio; Hirabayashi, Kazunori; Kamigata, Nobumasa; Yasui, Masanori; Nakazato, Masaki; Iwasaki, Fujiko; Tetrahedron Letters; vol. 45; 11; (2004); p. 2301 - 2303;",https://www.reaxys.com/reaxys/secured/hopinto.do?context=C&query=CNR.CNR%3D6428310&database=RX&origin=ReaxysOutput&ln=
,C1CC=CC=C1,506024.0,https://www.reaxys.com/reaxys/secured/hopinto.do?context=S&query=IDE.XRN%3D506024&database=RX&origin=ReaxysOutput&ln=,(1007 of 4000),1165952-91-9,"cyclohexa-1,3-diene; 1,3-cyclohexadiene",(CH)4CH2CH2,C6H8,80.1295,isocyclic,,MGNZXYYWBUKAII-UHFFFAOYSA-N,,,,Identification(1613); Physical Data(273); Spectra(121); Bioactivity(244),6715.0,4869.0,-89,,,,,,"Article; White; Bishop; Journal of the American Chemical Society; vol. 62; (1940); p. 8,10;",https://www.reaxys.com/reaxys/secured/hopinto.do?context=C&query=CNR.CNR%3D1549273&database=RX&origin=ReaxysOutput&ln=
,C=C\C=C\C=C,1696949.0,https://www.reaxys.com/reaxys/secured/hopinto.do?context=S&query=IDE.XRN%3D1696949&database=RX&origin=ReaxysOutput&ln=,(1008 of 4000),821-07-8,"(E)-1,3,5-hexatriene; trans-1,3,5-hexatriene; 1,3,5-hexatriene",CH2CHCHCHCHCH2,C6H8,80.1295,acyclic,,AFVDZBIIBXWASR-AATRIKPKSA-N,,,,Identification(467); Physical Data(41); Spectra(65),74.0,570.0,-11.7,,,,,,"Article; Kreysig,D. et al.; Journal fur praktische Chemie (Leipzig 1954); vol. 37; (1968); p. 329 - 336;",https://www.reaxys.com/reaxys/secured/hopinto.do?context=C&query=CNR.CNR%3D288678&database=RX&origin=ReaxysOutput&ln=
,C=CC=CC=C,1730999.0,https://www.reaxys.com/reaxys/secured/hopinto.do?context=S&query=IDE.XRN%3D1730999&database=RX&origin=ReaxysOutput&ln=,(1009 of 4000),2235-12-3,"1,3,5-hexatriene; hexatriene",CH2(CH)4CH2,C6H8,80.1295,acyclic,,AFVDZBIIBXWASR-UHFFFAOYSA-N,,,,Identification(28); Physical Data(80); Spectra(27),134.0,182.0,,,,,,,Article; Shackelford et al.; Journal of Organic Chemistry; vol. 27; (1962); p. 1631;,https://www.reaxys.com/reaxys/secured/hopinto.do?context=C&query=CNR.CNR%3D3793398&database=RX&origin=ReaxysOutput&ln=
,C1CC1=C1CC1,1847531.0,https://www.reaxys.com/reaxys/secured/hopinto.do?context=S&query=IDE.XRN%3D1847531&database=RX&origin=ReaxysOutput&ln=,(1010 of 4000),27567-82-4,bicyclopropylidene; cyclopropylidenecyclopropane,(C3H4)2,C6H8,80.1295,isocyclic,,VIVNOHOCUKALPP-UHFFFAOYSA-N,,,,Identification(33); Physical Data(25); Spectra(21),513.0,124.0,-12,,,,,,"Article; Weber, Walter; Meijere, Armin de; Synthetic Communications; vol. 16; 7; (1986); p. 837 - 846;",https://www.reaxys.com/reaxys/secured/hopinto.do?context=C&query=CNR.CNR%3D5798018&database=RX&origin=ReaxysOutput&ln=
,C1C2CC=CC12,1848128.0,https://www.reaxys.com/reaxys/secured/hopinto.do?context=S&query=IDE.XRN%3D1848128&database=RX&origin=ReaxysOutput&ln=,(1011 of 4000),694-01-9,bicyclo{3.1.0}hex-2-ene; Bicyclo<3.1.0>hex-2-en; bicyclo<3.1.0>hex-2-ene,C5H6(CH2),C6H8,80.1295,isocyclic,,BAOZQZPGQWXJOW-UHFFFAOYSA-N,,,,Identification(32); Physical Data(16); Spectra(16),21.0,48.0,70 - 71,,,,,,"Article; Freeman et al.; Journal of Organic Chemistry; vol. 30; (1965); p. 771,775;",https://www.reaxys.com/reaxys/secured/hopinto.do?context=C&query=CNR.CNR%3D4454151&database=RX&origin=ReaxysOutput&ln=
,C1C=CCC=C1,1900733.0,https://www.reaxys.com/reaxys/secured/hopinto.do?context=S&query=IDE.XRN%3D1900733&database=RX&origin=ReaxysOutput&ln=,(1012 of 4000),1165952-92-0,"cyclohexa-1,4-diene; 1,4-cyclohexadiene; 1,4-cyclohexadien",CH2(CHCH)2CH2,C6H8,80.1295,isocyclic,,UVJHQYIOXKWHFD-UHFFFAOYSA-N,,,,Identification(632); Physical Data(200); Spectra(74); Bioactivity(90),1921.0,1728.0,92 - 94,,supporting information,,,,"Article; McKeever, Caitriona; Kaiser, Marcel; Rozas, Isabel; Journal of Medicinal Chemistry; vol. 56; 3; (2013); p. 700 - 711;",https://www.reaxys.com/reaxys/secured/hopinto.do?context=C&query=CNR.CNR%3D35466778&database=RX&origin=ReaxysOutput&ln=