Structure: Image,SMILES,Substance Identification: Reaxys Registry Number,Links to Reaxys,Data Count,CAS Registry Number,Chemical Name,Linear Structure Formula,Molecular Formula,Molecular Weight,Type of Substance,Type and Modification,InChI Key,Composition: Comp. Name,Composition: Comp. Conc.,Composition: Comp. Attrib.,Field Availability,Number of Reactions,Number of References,Melting Point: Melting Point [C],Solvent (Melting Point),Location,Comment (Melting Point),Crystallizes With,Amount (Melting Point) [mol],References,Links to Reaxys.1
,CN(=O)=O,1698205.0,https://www.reaxys.com/reaxys/secured/hopinto.do?context=S&query=IDE.XRN%3D1698205&database=RX&origin=ReaxysOutput&ln=,(338 of 4000),75-52-5,nitromethane; nitromethae,NO2CH3,CH3NO2,61.0403,acyclic,,LYGJENNIWJXYER-UHFFFAOYSA-N,,,,Identification(514); Physical Data(1702); Spectra(257); Bioactivity(521),16182.0,9469.0,-28,,,,,,"Article; Bagryanskaya, Yu. i.; Gatilov, Yu. V.; Journal of Structural Chemistry; vol. 24; 1; (1983); p. 150 - 151; Zhurnal Strukturnoi Khimii; vol. 24; 1; (1983); p. 158 - 160;",https://www.reaxys.com/reaxys/secured/hopinto.do?context=C&query=CNR.CNR%3D5879036&database=RX&origin=ReaxysOutput&ln=
,CON=O,1698447.0,https://www.reaxys.com/reaxys/secured/hopinto.do?context=S&query=IDE.XRN%3D1698447&database=RX&origin=ReaxysOutput&ln=,(339 of 4000),624-91-9,methyl nitrite,CH3ONO,CH3NO2,61.0403,acyclic,,BLLFVUPNHCTMSV-UHFFFAOYSA-N,,,,Identification(403); Physical Data(66); Spectra(102),323.0,811.0,-16,,,,,,"Article; Hunt et al.; Analytical Chemistry; vol. 48; (1976); p. 2098,2100;",https://www.reaxys.com/reaxys/secured/hopinto.do?context=C&query=CNR.CNR%3D2738525&database=RX&origin=ReaxysOutput&ln=
,ONC=O,1698504.0,https://www.reaxys.com/reaxys/secured/hopinto.do?context=S&query=IDE.XRN%3D1698504&database=RX&origin=ReaxysOutput&ln=,(340 of 4000),4312-87-2,formohydroxamic acid; hydroxamic acid; N-formyl-hydroxylamine,HCONHOH,CH3NO2,61.0403,acyclic,,KDGKTJGPFXIBEB-UHFFFAOYSA-N,,,,Identification(912); Physical Data(22); Spectra(16); Bioactivity(50),51.0,966.0,81 - 82,,,,,,"Article; Jones; American Chemical Journal; vol. 20; (1898); p. 25;; ; Article; Johnson, A. Peter; Luke, Richard W. A.; Steele, Robert W.; Boa, Andrew N.; Journal of the Chemical Society. Perkin transactions I; 9; (1996); p. 883 - 893;",https://www.reaxys.com/reaxys/secured/hopinto.do?context=C&query=CNR.CNR%3D1451421&database=RX&origin=ReaxysOutput&ln=
,NC(O)=O,1734754.0,https://www.reaxys.com/reaxys/secured/hopinto.do?context=S&query=IDE.XRN%3D1734754&database=RX&origin=ReaxysOutput&ln=,(341 of 4000),463-77-4,carbamic Acid,NH3(CO2),CH3NO2,61.0403,acyclic; Coordination compound,,KXDHJXZQYSOELW-UHFFFAOYSA-N,,,,Identification(1195); Physical Data(45); Spectra(72); Bioactivity(64),60.0,1278.0,212,,,,,,Article; Haleem et al.; Journal of the Indian Chemical Society; vol. 53; (1976); p. 724;,https://www.reaxys.com/reaxys/secured/hopinto.do?context=C&query=CNR.CNR%3D4000253&database=RX&origin=ReaxysOutput&ln=
,C[13C](O)=O,1699486.0,https://www.reaxys.com/reaxys/secured/hopinto.do?context=S&query=IDE.XRN%3D1699486&database=RX&origin=ReaxysOutput&ln=,(342 of 4000),1563-79-7,[1-13C]-acetic acid; acetic acid-1-13C; 13C-acetic acid,CH3(13)COOH,C2H4O2,61.0416,acyclic,,QTBSBXVTEAMEQO-VQEHIDDOSA-N,,,,Identification(25); Physical Data(11); Spectra(39); Bioactivity(7),76.0,120.0,16.84,,Page/Page column 13,,,,Patent; MASS GENERAL BRIGHAM INC; US9289518; (2016); B2;,https://www.reaxys.com/reaxys/secured/hopinto.do?context=C&query=CNR.CNR%3D68688358&database=RX&origin=ReaxysOutput&ln=
,N[13C](N)=O,1700364.0,https://www.reaxys.com/reaxys/secured/hopinto.do?context=S&query=IDE.XRN%3D1700364&database=RX&origin=ReaxysOutput&ln=,(343 of 4000),58069-82-2,13C urea,(NH2)2(13)CO,CH4N2O,61.0446,acyclic; Isotope or isotope containing compound,,XSQUKJJJFZCRTK-OUBTZVSYSA-N,,,,Identification(131); Physical Data(5); Spectra(26); Bioactivity(10),23.0,161.0,114 - 120,ethanol,,,,,"Article; Iida, Katsumi; Chiyoda, Takeshi; Kajiwara, Masahiro; Journal of labelled compounds and radiopharmaceuticals; vol. 38; 12; (1996); p. 1133 - 1138;",https://www.reaxys.com/reaxys/secured/hopinto.do?context=C&query=CNR.CNR%3D6065786&database=RX&origin=ReaxysOutput&ln=
,[2H]OC(C)=O,1739249.0,https://www.reaxys.com/reaxys/secured/hopinto.do?context=S&query=IDE.XRN%3D1739249&database=RX&origin=ReaxysOutput&ln=,(344 of 4000),758-12-3,deuteroacetic acid,CH3C(O)OD,C2H4O2,61.0446,acyclic,,QTBSBXVTEAMEQO-DYCDLGHISA-N,,,,Identification(44); Physical Data(81); Spectra(67),293.0,384.0,15.4,,,,,,"Article; Halford; Anderson; Journal of the American Chemical Society; vol. 58; (1936); p. 739;; ; Article; De la Mare et al.; Journal of the Chemical Society B: Physical Organic; (1971); p. 1122,1123;",https://www.reaxys.com/reaxys/secured/hopinto.do?context=C&query=CNR.CNR%3D1142258&database=RX&origin=ReaxysOutput&ln=
,NC([15NH2])=O,1921843.0,https://www.reaxys.com/reaxys/secured/hopinto.do?context=S&query=IDE.XRN%3D1921843&database=RX&origin=ReaxysOutput&ln=,(345 of 4000),71451-00-8,urea-15N1; (15N)-Harnstoff; Harnstoff<15N1>; [1-15N]urea,((15)NH2)(NH2)CO,CH4N2O,61.0489,acyclic; Isotope or isotope containing compound,,XSQUKJJJFZCRTK-VQEHIDDOSA-N,,,,Identification(54); Physical Data(4); Spectra(3),5.0,57.0,131 - 132,tetrahydrofuran,,,,,Article; Klayman; Senning; Milne; Acta Chemica Scandinavica (1947); vol. 21; 1; (1967); p. 217 - 223;,https://www.reaxys.com/reaxys/secured/hopinto.do?context=C&query=CNR.CNR%3D772170&database=RX&origin=ReaxysOutput&ln=
,C[14C](N)=O,1699488.0,https://www.reaxys.com/reaxys/secured/hopinto.do?context=S&query=IDE.XRN%3D1699488&database=RX&origin=ReaxysOutput&ln=,(346 of 4000),54744-89-7,<1-14C>-Acetamid; [1-(14)C]acetamide; [1-14C]Acetamid,C(14)CH5NO,C2H5NO,61.0568,acyclic,,DLFVBJFMPXGRIB-HQMMCQRPSA-N,,,,Identification(5); Physical Data(1),3.0,2.0,78 - 79,ethyl acetate,,,,,Article; Anker; Raper; Journal of Biological Chemistry; vol. 176; (1948); p. 1353;,https://www.reaxys.com/reaxys/secured/hopinto.do?context=C&query=CNR.CNR%3D1146250&database=RX&origin=ReaxysOutput&ln=
,NCCO,505944.0,https://www.reaxys.com/reaxys/secured/hopinto.do?context=S&query=IDE.XRN%3D505944&database=RX&origin=ReaxysOutput&ln=,(347 of 4000),141-43-5,ethanolamine; 2-aminoethanol; β-Hydroxyethylamine; monoethanolamine,H2N(CH2)2OH,C2H7NO,61.0837,acyclic,,HZAXFHJVJLSVMW-UHFFFAOYSA-N,,,,Identification(1580); Physical Data(944); Spectra(152); Bioactivity(865),17663.0,14880.0,238,,,,,,"Article; Khoroshilov, Andrey V.; Kiselev, Mikhail R.; Klapshin, Yuri P.; Makaev, Sergey V.; Rodnikova, Margarita N.; Solonina, Irina A.; Mendeleev Communications; vol. 30; 4; (2020); p. 534 - 536;",https://www.reaxys.com/reaxys/secured/hopinto.do?context=C&query=CNR.CNR%3D80438378&database=RX&origin=ReaxysOutput&ln=
,CCNO,773646.0,https://www.reaxys.com/reaxys/secured/hopinto.do?context=S&query=IDE.XRN%3D773646&database=RX&origin=ReaxysOutput&ln=,(348 of 4000),624-81-7,ethylhydroxylamine; N-Ethylhydroxylamine; N-hydroxy-ethanamine; N-hydroxy-N-ethylamine; ethyl-aminoalcohol; N-Aethyl-hydroxylamin; β-Aethyl-hydroxylamin; Hydroxylamino-aethan; Hydroylaminoaethan,N(C2H5)HOH,C2H7NO,61.0837,acyclic,,VDUIPQNXOQMTBF-UHFFFAOYSA-N,,,,Identification(25); Physical Data(13); Spectra(1),100.0,86.0,58 - 59,,,,,,"Article; LeBel,N.A. et al.; Journal of the American Chemical Society; vol. 86; (1964); p. 3759 - 3767;",https://www.reaxys.com/reaxys/secured/hopinto.do?context=C&query=CNR.CNR%3D54156&database=RX&origin=ReaxysOutput&ln=
,CNOC,906699.0,https://www.reaxys.com/reaxys/secured/hopinto.do?context=S&query=IDE.XRN%3D906699&database=RX&origin=ReaxysOutput&ln=,(349 of 4000),1117-97-1,"N,0-dimethylhydroxylamine; N-methyl-N-methoxy amine",(CH3O)(CH3)HN,C2H7NO,61.0837,acyclic,,KRKPYFLIYNGWTE-UHFFFAOYSA-N,,,,Identification(169); Physical Data(40); Spectra(13); Bioactivity(71),1705.0,1345.0,-97,,,,,,"Article; Bissot et al.; Journal of the American Chemical Society; vol. 79; (1957); p. 796,799;",https://www.reaxys.com/reaxys/secured/hopinto.do?context=C&query=CNR.CNR%3D1275064&database=RX&origin=ReaxysOutput&ln=
,CN(C)O,1730816.0,https://www.reaxys.com/reaxys/secured/hopinto.do?context=S&query=IDE.XRN%3D1730816&database=RX&origin=ReaxysOutput&ln=,(350 of 4000),5725-96-2,"N,N-dimethylhydroxylamine",HON(CH3)2,C2H7NO,61.0837,acyclic,,VMESOKCXSYNAKD-UHFFFAOYSA-N,,,,Identification(49); Physical Data(37); Spectra(12); Bioactivity(10),124.0,134.0,20.5,,,,,,"Article; Dombrowski et al.; Zeitschrift fur Physikalische Chemie (Leipzig); vol. 252; (1973); p. 154,155;",https://www.reaxys.com/reaxys/secured/hopinto.do?context=C&query=CNR.CNR%3D3144279&database=RX&origin=ReaxysOutput&ln=
,CC(N)O,1900185.0,https://www.reaxys.com/reaxys/secured/hopinto.do?context=S&query=IDE.XRN%3D1900185&database=RX&origin=ReaxysOutput&ln=,(351 of 4000),75-39-8,1-aminoethanol; aminoethyl alcohol,C2H7NO,C2H7NO,61.0837,acyclic,,UJPKMTDFFUTLGM-UHFFFAOYSA-N,,,,Identification(38); Physical Data(5); Spectra(3),16.0,49.0,97,,,,,,"Article; Hu, Yunfeng; Jin, Shuhan; Zhang, Zhichao; Zhang, Likun; Deng, Jun; Zhang, Hongsheng; Catalysis Communications; vol. 54; (2014); p. 45 - 49;",https://www.reaxys.com/reaxys/secured/hopinto.do?context=C&query=CNR.CNR%3D63673137&database=RX&origin=ReaxysOutput&ln=
,NC=S,1732552.0,https://www.reaxys.com/reaxys/secured/hopinto.do?context=S&query=IDE.XRN%3D1732552&database=RX&origin=ReaxysOutput&ln=,(352 of 4000),115-08-2,thiocarboxamide; thioformamide; methanethioamide,SCHNH2,CH3NS,61.1075,acyclic,,CYEBJEDOHLIWNP-UHFFFAOYSA-N,,,,Identification(141); Physical Data(21); Spectra(21); Bioactivity(22),329.0,408.0,26,,,,,,Article; Rohaly; Novak; Szantay; Organic Preparations and Procedures International; vol. 31; 6; (1999); p. 693 - 694;,https://www.reaxys.com/reaxys/secured/hopinto.do?context=C&query=CNR.CNR%3D6219243&database=RX&origin=ReaxysOutput&ln=
,ClC#N,969190.0,https://www.reaxys.com/reaxys/secured/hopinto.do?context=S&query=IDE.XRN%3D969190&database=RX&origin=ReaxysOutput&ln=,(353 of 4000),506-77-4,cyanogen chloride; cyanuric chloride,NCCl,CClN,61.4707,acyclic; Isotope or isotope containing compound,,QPJDMGCKMHUXFD-UHFFFAOYSA-N,,,,Identification(539); Physical Data(300); Spectra(76); Bioactivity(92),1241.0,1781.0,-6.6,,,,,,"Article; Arduengo, Anthony J.; Calabrese, Joseph C.; Marshall, William J.; Runyon, Jason W.; Schiel, Christian; Schinnen, Christoph; Tamm, Matthias; Uchiyama, Yosuke; Zeitschrift fur Anorganische und Allgemeine Chemie; vol. 641; 12-13; (2015); p. 2190 - 2198;",https://www.reaxys.com/reaxys/secured/hopinto.do?context=C&query=CNR.CNR%3D67272535&database=RX&origin=ReaxysOutput&ln=
,[H]B1C2B([H])C1B2[H],969298.0,https://www.reaxys.com/reaxys/secured/hopinto.do?context=S&query=IDE.XRN%3D969298&database=RX&origin=ReaxysOutput&ln=,(354 of 4000),143495-97-0,"1,5-Dicarbaclosotriboran; 2,4,5-Triborabicyclo<1.1.1>pentan; 1,5-C2B3H5; 2,4,5-tribora-bicyclo[1.1.1]pentane; 1,5-dicarba-closo-pentaborane(5)",C2B3H5,C2H5B3,61.4947,heterocyclic,,YVQMNVAOSKHHHL-UHFFFAOYSA-N,,,,Identification(7); Physical Data(5); Spectra(3),1.0,4.0,-126.4,,,,,,Article; Shapiro et al.; Journal of the American Chemical Society; vol. 84; (1962); p. 3837;,https://www.reaxys.com/reaxys/secured/hopinto.do?context=C&query=CNR.CNR%3D3786936&database=RX&origin=ReaxysOutput&ln=
,[H]B1C=CB([H])B1[H],969630.0,https://www.reaxys.com/reaxys/secured/hopinto.do?context=S&query=IDE.XRN%3D969630&database=RX&origin=ReaxysOutput&ln=,(355 of 4000),68691-56-5,"sym. Triboradimethin; 1,2-planar C2B3H5",B3C2H5,C2H5B3,61.4947,heterocyclic,,BWAHZHDZYMBIRD-UHFFFAOYSA-N,,,,Identification(5); Physical Data(3),1.0,4.0,-126.4,,,,,,Patent; OLIN CORP; US3030289; (1962); A; Chem.Abstr.; vol. 57; 12534b; (1962); Chem.Abstr.; vol. 57; 12534b; (1962);,https://www.reaxys.com/reaxys/secured/hopinto.do?context=C&query=CNR.CNR%3D3086806&database=RX&origin=ReaxysOutput&ln=
,OB(O)O,3600274.0,https://www.reaxys.com/reaxys/secured/hopinto.do?context=S&query=IDE.XRN%3D3600274&database=RX&origin=ReaxysOutput&ln=,(358 of 4000),11113-50-1,boric acid; Orthoboric acid; boron acid,BH3O3,BH3O3,61.833,Isotope or isotope containing compound,,KGBXLFKZBHKPEV-UHFFFAOYSA-N,,,,Identification(13997); Physical Data(1015); Spectra(177); Bioactivity(1081),13400.0,19401.0,169,,,,,,"Article; Huo, Jiansheng; Zhu, Qijian; Li, Suzhen; Gao, Jinwei; Wang, Qianming; Journal of Alloys and Compounds; vol. 787; (2019); p. 96 - 103;",https://www.reaxys.com/reaxys/secured/hopinto.do?context=C&query=CNR.CNR%3D75960216&database=RX&origin=ReaxysOutput&ln=
,[H]B([H])[H].[H]P([H])C,3662868.0,https://www.reaxys.com/reaxys/secured/hopinto.do?context=S&query=IDE.XRN%3D3662868&database=RX&origin=ReaxysOutput&ln=,(359 of 4000),,Methylphosphin-boran-Komplex,(CH3)H2P*BH3,BH3*CH5P,61.8593,acyclic,,CFFBBJBFIIKTCH-UHFFFAOYSA-N,,,,Identification(8); Physical Data(3); Spectra(14),6.0,17.0,-49.9 - -49.3,,,,,,"Article; Burg; Wagner; Journal of the American Chemical Society; vol. 75; (1953); p. 3872,3873;",https://www.reaxys.com/reaxys/secured/hopinto.do?context=C&query=CNR.CNR%3D1276031&database=RX&origin=ReaxysOutput&ln=
,OOC=O,1698503.0,https://www.reaxys.com/reaxys/secured/hopinto.do?context=S&query=IDE.XRN%3D1698503&database=RX&origin=ReaxysOutput&ln=,(361 of 4000),107-32-4,,HCOO2H,CH2O3,62.0251,acyclic,,SCKXCAADGDQQCS-UHFFFAOYSA-N,,,,Identification(1222); Physical Data(11); Spectra(11); Bioactivity(74),62.0,1323.0,-18.5,,,,,,"Article; Eggersgluess; Angewandte Chemie; vol. 61; (1951); p. 16,83;",https://www.reaxys.com/reaxys/secured/hopinto.do?context=C&query=CNR.CNR%3D62978213&database=RX&origin=ReaxysOutput&ln=
,OC(O)=O,1900717.0,https://www.reaxys.com/reaxys/secured/hopinto.do?context=S&query=IDE.XRN%3D1900717&database=RX&origin=ReaxysOutput&ln=,(362 of 4000),463-79-6,carbonic-acid,CO(OH)2,CH2O3,62.0251,acyclic,,BVKZGUZCCUSVTD-UHFFFAOYSA-N,,,,Identification(430); Physical Data(29); Spectra(18); Bioactivity(56),492.0,1014.0,202 - 203,,,,,,Patent; EISAI CO LTD; US5237091; (1993); A;,https://www.reaxys.com/reaxys/secured/hopinto.do?context=C&query=CNR.CNR%3D192076&database=RX&origin=ReaxysOutput&ln=
,NN(=O)=O,6379385.0,https://www.reaxys.com/reaxys/secured/hopinto.do?context=S&query=IDE.XRN%3D6379385&database=RX&origin=ReaxysOutput&ln=,(363 of 4000),7782-94-7,nitramine,H2N2O2,H2N2O2,62.0281,,,SFDJOSRHYKHMOK-UHFFFAOYSA-N,,,,Identification(98); Physical Data(92); Spectra(19),35.0,217.0,81 - 84,,,,,,"Article; Haeussler, Angelika; Klapoetke, Thomas M.; Piotrowski, Holger; Zeitschrift fur Naturforschung, B: Chemical Sciences; vol. 57; 2; (2002); p. 151 - 156; (from Gmelin)",https://www.reaxys.com/reaxys/secured/hopinto.do?context=C&query=CNR.CNR%3D6364385&database=RX&origin=ReaxysOutput&ln=
,[Li]CCC=C,4124198.0,https://www.reaxys.com/reaxys/secured/hopinto.do?context=S&query=IDE.XRN%3D4124198&database=RX&origin=ReaxysOutput&ln=,(364 of 4000),14660-39-0,3-butenyllithium; 4-lithio-1-butene; homoallyl lithium,CH2CHCH2CH2Li,C4H7Li,62.0406,acyclic,,JEKXJMDUMGMVCJ-UHFFFAOYSA-N,,,,Identification(10); Physical Data(1); Spectra(6),49.0,34.0,22.4,,,,,,"Article; Smart et al.; Journal of Organometallic Chemistry; vol. 64; (1974); p. 1,9;",https://www.reaxys.com/reaxys/secured/hopinto.do?context=C&query=CNR.CNR%3D3780237&database=RX&origin=ReaxysOutput&ln=
,[15NH2]C([15NH2])=O,1701769.0,https://www.reaxys.com/reaxys/secured/hopinto.do?context=S&query=IDE.XRN%3D1701769&database=RX&origin=ReaxysOutput&ln=,(365 of 4000),2067-80-3,urea-15N2; [15N2]urea; 15N-urea,(15)NH2C(O)(15)NH2,CH4N2O,62.0422,acyclic,,XSQUKJJJFZCRTK-SUEIGJEOSA-N,,,,Identification(26); Physical Data(10); Spectra(41); Bioactivity(5),43.0,82.0,132,,,,,,"Article; Clusius, K.; Vecchi, M.; Helvetica Chimica Acta; vol. 36; (1953); p. 1324 - 1326;; ; Article; Gmelin Handbuch der Anorganischen Chemie; vol. C: MVol.D1; 45.1.11, page 399 - 401; (from Gmelin)",https://www.reaxys.com/reaxys/secured/hopinto.do?context=C&query=CNR.CNR%3D7406980&database=RX&origin=ReaxysOutput&ln=
,CC(F)=O,1733308.0,https://www.reaxys.com/reaxys/secured/hopinto.do?context=S&query=IDE.XRN%3D1733308&database=RX&origin=ReaxysOutput&ln=,(366 of 4000),557-99-3,acetyl fluoride,CH3COF,C2H3FO,62.0436,acyclic,,JUCMRTZQCZRJDC-UHFFFAOYSA-N,,,,Identification(96); Physical Data(54); Spectra(45); Bioactivity(15),199.0,284.0,-84,,,,,,"Article; Attaway et al.; Journal of the American Chemical Society; vol. 81; (1959); p. 3599,3602;",https://www.reaxys.com/reaxys/secured/hopinto.do?context=C&query=CNR.CNR%3D1179287&database=RX&origin=ReaxysOutput&ln=
,[2H]C([2H])([2H])C(N)=O,1902718.0,https://www.reaxys.com/reaxys/secured/hopinto.do?context=S&query=IDE.XRN%3D1902718&database=RX&origin=ReaxysOutput&ln=,(367 of 4000),23724-60-9,"trideuteroacetamide; acetamide-d3; 2,2,2-trideuterioacetamide; d3-acetamide; 2-Trideutero-acetamid; <2,2,2-2H3>-Acetamid; 2.2.2-Trideuterio-acetamid; C,C,C-Trideuterio-acetamid; (2.2.2-d3)-Acetamid; Acetamid-2,2,2-d3; Trideuteroacetamid; Acetamid-C-d(3); Acetamid-d(3)",C2H2D3NO,C2H5NO,62.044,acyclic,,DLFVBJFMPXGRIB-FIBGUPNXSA-N,,,,Identification(9); Physical Data(6); Spectra(7),12.0,18.0,81.5,methanol; diethyl ether,,,,,"Article; Gray; Leyshon; Transactions of the Faraday Society; vol. 65; (1969); p. 780,784, 785;",https://www.reaxys.com/reaxys/secured/hopinto.do?context=C&query=CNR.CNR%3D3758660&database=RX&origin=ReaxysOutput&ln=
,N[14C](N)=O,1700366.0,https://www.reaxys.com/reaxys/secured/hopinto.do?context=S&query=IDE.XRN%3D1700366&database=RX&origin=ReaxysOutput&ln=,(368 of 4000),594-05-8,[14C]urea,(NH2)2(14)CO,CH4N2O,62.0446,acyclic; Isotope or isotope containing compound,,XSQUKJJJFZCRTK-NJFSPNSNSA-N,,,,Identification(39); Physical Data(3); Bioactivity(7),21.0,61.0,132 - 133,acetone,,,,,"Article; Murray; Ronzio; Journal of the American Chemical Society; vol. 71; (1949); p. 2245;; ; Article; Gmelin Handbuch der Anorganischen Chemie; vol. C: MVol.D1; 45.1.11, page 399 - 401;; ; Patent; US57926; (1951); A; C.A.; (1952); p. 3561; (from Gmelin)",https://www.reaxys.com/reaxys/secured/hopinto.do?context=C&query=CNR.CNR%3D1475295&database=RX&origin=ReaxysOutput&ln=
,OCCO,505945.0,https://www.reaxys.com/reaxys/secured/hopinto.do?context=S&query=IDE.XRN%3D505945&database=RX&origin=ReaxysOutput&ln=,(369 of 4000),107-21-1,"ethylene glycol; 1,2-ethanediol",C2H4OHOH,C2H6O2,62.0684,acyclic,,LYCAIKOWRPUZTN-UHFFFAOYSA-N,,,,Identification(11886); Physical Data(2127); Spectra(170); Bioactivity(1723),19542.0,30166.0,-16,,Page/Page column 10,,,,Patent; BASF SE; US2012/116099; (2012); A1;,https://www.reaxys.com/reaxys/secured/hopinto.do?context=C&query=CNR.CNR%3D20125262&database=RX&origin=ReaxysOutput&ln=
,COOC,1730817.0,https://www.reaxys.com/reaxys/secured/hopinto.do?context=S&query=IDE.XRN%3D1730817&database=RX&origin=ReaxysOutput&ln=,(370 of 4000),690-02-8,dimethyl peroxide; methyl peroxide; methoxy methyl ether; Dimethyl-peroxid; bis(methyl)peroxide,(CH3)2O2,C2H6O2,62.0684,acyclic,,SRXOCFMDUSFFAK-UHFFFAOYSA-N,,,,Identification(145); Physical Data(20); Spectra(14),35.0,211.0,-105 - -100,,,,,,Article; Rieche; Chemische Berichte; vol. 62; (1929); p. 225;,https://www.reaxys.com/reaxys/secured/hopinto.do?context=C&query=CNR.CNR%3D1315912&database=RX&origin=ReaxysOutput&ln=
,CCOO,1730834.0,https://www.reaxys.com/reaxys/secured/hopinto.do?context=S&query=IDE.XRN%3D1730834&database=RX&origin=ReaxysOutput&ln=,(371 of 4000),3031-74-1,ethyl hydroperoxide; Ethylhydroperoxid,CH3CH2OOH,C2H6O2,62.0684,acyclic,,ILHIHKRJJMKBEE-UHFFFAOYSA-N,,,,Identification(144); Physical Data(44); Spectra(26),95.0,230.0,-100,,,,,,"Article; Harris; Proceedings of the Royal Society of London, Series A: Mathematical, Physical and Engineering Sciences; vol. 173; (1939); p. 134,138;",https://www.reaxys.com/reaxys/secured/hopinto.do?context=C&query=CNR.CNR%3D1352332&database=RX&origin=ReaxysOutput&ln=