Structure: Image,SMILES,Substance Identification: Reaxys Registry Number,Links to Reaxys,Data Count,CAS Registry Number,Chemical Name,Linear Structure Formula,Molecular Formula,Molecular Weight,Type of Substance,Type and Modification,InChI Key,Composition: Comp. Name,Composition: Comp. Conc.,Composition: Comp. Attrib.,Field Availability,Number of Reactions,Number of References,Melting Point: Melting Point [C],Solvent (Melting Point),Location,Comment (Melting Point),Crystallizes With,Amount (Melting Point) [mol],References,Links to Reaxys.1
,CCNC(N)=O,1740512.0,https://www.reaxys.com/reaxys/secured/hopinto.do?context=S&query=IDE.XRN%3D1740512&database=RX&origin=ReaxysOutput&ln=,(1672 of 4000),625-52-5,N-Ethylurea,NH2CONHC2H5,C3H8N2O,88.1093,acyclic,,RYECOJGRJDOGPP-UHFFFAOYSA-N,,,,Identification(148); Physical Data(97); Spectra(25); Bioactivity(21),299.0,409.0,83,,,,,,"Article; Franck, Xavier; Glachet, Thomas; Ibert, Quentin; Lohier, Jean-François; Reboul, Vincent; Saraiva Rosa, Nathalie; Synthesis; vol. 52; 14; (2020); p. 2099 - 2105;",https://www.reaxys.com/reaxys/secured/hopinto.do?context=C&query=CNR.CNR%3D80232539&database=RX&origin=ReaxysOutput&ln=
,CN(C)C(N)=O,1740666.0,https://www.reaxys.com/reaxys/secured/hopinto.do?context=S&query=IDE.XRN%3D1740666&database=RX&origin=ReaxysOutput&ln=,(1673 of 4000),598-94-7,"1,1-Dimethylurea; N,N-dimethylcarbamide; dimethylurea; N,N'-dimethylurea",CONH2N(CH3)2,C3H8N2O,88.1093,acyclic,,YBBLOADPFWKNGS-UHFFFAOYSA-N,,,,Identification(282); Physical Data(116); Spectra(37); Bioactivity(33),409.0,579.0,178 - 181,,supporting information,,,,"Article; Bagherzadeh, Nastaran; Sardarian, Ali Reza; Inaloo, Iman Dindarloo; New Journal of Chemistry; vol. 45; 26; (2021); p. 11852 - 11858;",https://www.reaxys.com/reaxys/secured/hopinto.do?context=C&query=CNR.CNR%3D94161083&database=RX&origin=ReaxysOutput&ln=
,CNC(=O)NC,1740672.0,https://www.reaxys.com/reaxys/secured/hopinto.do?context=S&query=IDE.XRN%3D1740672&database=RX&origin=ReaxysOutput&ln=,(1674 of 4000),96-31-1,"N,N'-Dimethylurea; dimethylurea",(CH3)NHCONHCH3,C3H8N2O,88.1093,acyclic,,MGJKQDOBUOMPEZ-UHFFFAOYSA-N,,,,Identification(342); Physical Data(204); Spectra(72); Bioactivity(58),1054.0,1012.0,180,,,,,,"Article; Das, Ishwar; Ansari, Shoeb A.; Agrawal; Indian Journal of Chemistry, Section A: Inorganic, Physical, Theoretical and Analytical; vol. 50; 6; (2011); p. 788 - 792;",https://www.reaxys.com/reaxys/secured/hopinto.do?context=C&query=CNR.CNR%3D9064084&database=RX&origin=ReaxysOutput&ln=
,CNC(C)=NO,1919756.0,https://www.reaxys.com/reaxys/secured/hopinto.do?context=S&query=IDE.XRN%3D1919756&database=RX&origin=ReaxysOutput&ln=,(1675 of 4000),62626-11-3,N-methylacetamide oxime; N-Methylacetamidoxim; methyl acetamide oxime,C3H8N2O,C3H8N2O,88.1093,acyclic,,JCAXHWPMKMMFKM-UHFFFAOYSA-N,,,,Identification(8); Physical Data(1); Spectra(2),4.0,5.0,130 - 130.5,,,,,,"Article; Uen; Suemengen; Chimica Acta Turcica; vol. 4; (1976); p. 131,136;",https://www.reaxys.com/reaxys/secured/hopinto.do?context=C&query=CNR.CNR%3D3071319&database=RX&origin=ReaxysOutput&ln=
,[H][C@](C)(N)C(N)=O,2322280.0,https://www.reaxys.com/reaxys/secured/hopinto.do?context=S&query=IDE.XRN%3D2322280&database=RX&origin=ReaxysOutput&ln=,(1676 of 4000),35320-22-0,D-alaninamide; D-alanine amide; (R)-2-aminopropanamide,NH2CH(CH3)CONH2,C3H8N2O,88.1093,acyclic,,HQMLIDZJXVVKCW-UWTATZPHSA-N,,,,Identification(21); Physical Data(2); Spectra(1); Bioactivity(6),47.0,52.0,74 - 76,,,,,,Article; Miller; Hsu; Ruffolo Jr.; Patil; Journal of Medicinal Chemistry; vol. 19; 12; (1976); p. 1382 - 1384;,https://www.reaxys.com/reaxys/secured/hopinto.do?context=C&query=CNR.CNR%3D83902&database=RX&origin=ReaxysOutput&ln=
,C\C(CN)=N/O,2344844.0,https://www.reaxys.com/reaxys/secured/hopinto.do?context=S&query=IDE.XRN%3D2344844&database=RX&origin=ReaxysOutput&ln=,(1677 of 4000),2017-90-5,α-Amino-aceton-trans-oxim; 1-aminopropan-2-one oxime,C3H8N2O,C3H8N2O,88.1093,acyclic,,RBDWAFZCAZEDON-HWKANZROSA-N,,,,Identification(6); Physical Data(1); Spectra(3),3.0,2.0,65 - 66,benzene,,,,,"Article; Gnichtel,H.; Chemische Berichte; vol. 98; (1965); p. 567 - 575;",https://www.reaxys.com/reaxys/secured/hopinto.do?context=C&query=CNR.CNR%3D38054&database=RX&origin=ReaxysOutput&ln=
,CCN\C=N/O,5490724.0,https://www.reaxys.com/reaxys/secured/hopinto.do?context=S&query=IDE.XRN%3D5490724&database=RX&origin=ReaxysOutput&ln=,(1678 of 4000),75822-17-2,N-ethylformamidoxime,C3H8N2O,C3H8N2O,88.1093,acyclic,,RGZWNNNWPWDMLT-UHFFFAOYSA-N,,,,Identification(6); Physical Data(1); Spectra(4),1.0,1.0,81 - 83,benzene,,,,,"Article; Chow, Yuan L.; Horning, Douglas P.; Polo, Joel; Canadian Journal of Chemistry; vol. 58; (1980); p. 2477 - 2483;",https://www.reaxys.com/reaxys/secured/hopinto.do?context=C&query=CNR.CNR%3D5681436&database=RX&origin=ReaxysOutput&ln=
,CC(O)C(N)=N,6130613.0,https://www.reaxys.com/reaxys/secured/hopinto.do?context=S&query=IDE.XRN%3D6130613&database=RX&origin=ReaxysOutput&ln=,(1679 of 4000),,(-)-Lactamidin,C3H8N2O,C3H8N2O,88.1093,acyclic,(-)-enantiomer,HLGDWKWUYZNZIF-UHFFFAOYSA-N,,,,Identification(6); Physical Data(2),1.0,1.0,148 - 149,,,Decomposition,,,"Article; Neilson,D.G.; Peters,D.A.V.; Journal of the Chemical Society; (1962); p. 1309 - 1311;",https://www.reaxys.com/reaxys/secured/hopinto.do?context=C&query=CNR.CNR%3D160975&database=RX&origin=ReaxysOutput&ln=
,C1COCNN1,7524528.0,https://www.reaxys.com/reaxys/secured/hopinto.do?context=S&query=IDE.XRN%3D7524528&database=RX&origin=ReaxysOutput&ln=,(1680 of 4000),55944-26-8,"1,3,4-oxadiazinane",C3H8N2O,C3H8N2O,88.1093,heterocyclic,,USUGUKDXBSEMBW-UHFFFAOYSA-N,,,,Identification(5); Physical Data(1); Spectra(3),3.0,1.0,137 - 139,dioxane,,,,,"Article; Okawara, Tadashi; Ehara, Shuji; Kagotani, Hideaki; Okamoto, Yoshinari; Eto, Masashi; Harano, Kazunobu; Yamasaki, Tetsuo; Furukawa, Mitsuru; Journal of Organic Chemistry; vol. 61; 12; (1996); p. 4125 - 4129;",https://www.reaxys.com/reaxys/secured/hopinto.do?context=C&query=CNR.CNR%3D6022014&database=RX&origin=ReaxysOutput&ln=
,CC(N)=N(C)=O,32910400.0,https://www.reaxys.com/reaxys/secured/hopinto.do?context=S&query=IDE.XRN%3D32910400&database=RX&origin=ReaxysOutput&ln=,(1681 of 4000),,,C3H8N2O,C3H8N2O,88.1093,,,APZLASAMSFXVIN-UHFFFAOYSA-N,,,,Identification(6); Physical Data(2); Spectra(5); Bioactivity(1),4.0,2.0,98 - 100,acetone,supporting information,,,,"Article; Il'In, Mikhail V.; Bolotin, Dmitrii S.; Suslonov, Vitalii V.; Kukushkin, Vadim Yu; New Journal of Chemistry; vol. 42; 12; (2018); p. 9373 - 9376;; ; Article; Il'In, Mikhail V.; Sysoeva, Alexandra A.; Bolotin, Dmitrii S.; Novikov, Alexander S.; Suslonov, Vitalii V.; Rogacheva, Elizaveta V.; Kraeva, Liudmila A.; Kukushkin, Vadim Yu.; New Journal of Chemistry; vol. 43; 44; (2019); p. 17358 - 17366;",https://www.reaxys.com/reaxys/secured/hopinto.do?context=C&query=CNR.CNR%3D74016431&database=RX&origin=ReaxysOutput&ln=
,[2H]C1=C([2H])C([2H])=C([2H])S1,111185.0,https://www.reaxys.com/reaxys/secured/hopinto.do?context=S&query=IDE.XRN%3D111185&database=RX&origin=ReaxysOutput&ln=,(1682 of 4000),2036-39-7,d4-thiophene; Thiophen-d(4),C4((2)H4)S,C4H4S,88.11,heterocyclic,,YTPLMLYBLZKORZ-RHQRLBAQSA-N,,,,Identification(15); Physical Data(10); Spectra(16),12.0,31.0,-38.83 - -38.54,,,,,,Article; Steinkopf; Boetius; Justus Liebigs Annalen der Chemie; vol. 546; (1941); p. 208;,https://www.reaxys.com/reaxys/secured/hopinto.do?context=C&query=CNR.CNR%3D566179&database=RX&origin=ReaxysOutput&ln=
,CN(N)C(N)=N,741929.0,https://www.reaxys.com/reaxys/secured/hopinto.do?context=S&query=IDE.XRN%3D741929&database=RX&origin=ReaxysOutput&ln=,(1683 of 4000),44365-56-2,1-Amino-1-methyl-guanidin; 1-methylhydrazinecarboximidamide,C2H8N4,C2H8N4,88.1123,acyclic,,FQWDTSZAFLNHAT-UHFFFAOYSA-N,,,,Identification(10); Physical Data(2); Spectra(1); Bioactivity(7),14.0,17.0,191,methanol; propan-2-ol; diethyl ether,,,,,"Article; Wolff, Donald J.; Gauld, Douglas S.; Neulander, Matthew J.; Southan, Garry; Journal of Pharmacology and Experimental Therapeutics; vol. 283; 1; (1997); p. 265 - 273;",https://www.reaxys.com/reaxys/secured/hopinto.do?context=C&query=CNR.CNR%3D6519049&database=RX&origin=ReaxysOutput&ln=
,CNC(=N)NN,741930.0,https://www.reaxys.com/reaxys/secured/hopinto.do?context=S&query=IDE.XRN%3D741930&database=RX&origin=ReaxysOutput&ln=,(1684 of 4000),31106-59-9,Amino-methyl-guanidin; 1-Amino-3-methylguanidine,C2H8N4,C2H8N4,88.1123,acyclic,,QAUFIQWONOAGSU-UHFFFAOYSA-N,,,,Identification(14); Physical Data(4); Bioactivity(1),12.0,18.0,215,,,,,,Patent; PFIZER INC; US4544759; (1985); A;,https://www.reaxys.com/reaxys/secured/hopinto.do?context=C&query=CNR.CNR%3D7082096&database=RX&origin=ReaxysOutput&ln=
,CCN.[H]N=N#N,3676933.0,https://www.reaxys.com/reaxys/secured/hopinto.do?context=S&query=IDE.XRN%3D3676933&database=RX&origin=ReaxysOutput&ln=,(1685 of 4000),87321-28-6,ethylamine; azide; Aethylamin; Azid,C2H7N*HN3,C2H7N*HN3,88.1123,acyclic,,UXECWZJKYQUMRG-UHFFFAOYSA-N,,,,Identification(6); Physical Data(2); Spectra(1),5.0,5.0,65,,,,,,"Article; Cirulis; Straumanis; Journal fur praktische Chemie (Leipzig 1954); vol. &lt;2&gt;161; (1943); p. 65,74;",https://www.reaxys.com/reaxys/secured/hopinto.do?context=C&query=CNR.CNR%3D646370&database=RX&origin=ReaxysOutput&ln=
,CNC.[H]N=N#N,4483834.0,https://www.reaxys.com/reaxys/secured/hopinto.do?context=S&query=IDE.XRN%3D4483834&database=RX&origin=ReaxysOutput&ln=,(1686 of 4000),32649-51-7,dimethylammonium azide; Me2NH2N3; dimethyl-amine; azide; Dimethyl-amin; Azid,C2H7N*HN3,C2H7N*HN3,88.1123,acyclic,,VBAMJKAPIGJNHG-UHFFFAOYSA-N,,,,Identification(6); Physical Data(3); Spectra(3),6.0,7.0,74,,,,,,"Article; Cirulis; Straumanis; Journal fur praktische Chemie (Leipzig 1954); vol. &lt;2&gt;161; (1942); p. 65,74;",https://www.reaxys.com/reaxys/secured/hopinto.do?context=C&query=CNR.CNR%3D1916601&database=RX&origin=ReaxysOutput&ln=
,CN=C(N)NN,7577902.0,https://www.reaxys.com/reaxys/secured/hopinto.do?context=S&query=IDE.XRN%3D7577902&database=RX&origin=ReaxysOutput&ln=,(1687 of 4000),,2-methyl-1-aminoguanidine,C2H8N4,C2H8N4,88.1123,acyclic,,QAUFIQWONOAGSU-UHFFFAOYSA-N,,,,Identification(6); Physical Data(1); Spectra(1); Bioactivity(5),1.0,1.0,121,,,,,,"Article; Wolff, Donald J.; Gauld, Douglas S.; Neulander, Matthew J.; Southan, Garry; Journal of Pharmacology and Experimental Therapeutics; vol. 283; 1; (1997); p. 265 - 273;",https://www.reaxys.com/reaxys/secured/hopinto.do?context=C&query=CNR.CNR%3D6519049&database=RX&origin=ReaxysOutput&ln=
,CC(C)C([15NH2])=O,1851929.0,https://www.reaxys.com/reaxys/secured/hopinto.do?context=S&query=IDE.XRN%3D1851929&database=RX&origin=ReaxysOutput&ln=,(1688 of 4000),62962-45-2,<15N>-Isobutyramid; [(15)N]isobutyramide; iPrCO(15)NH2,C4H9(15)NO,C4H9NO,88.1149,acyclic,,WFKAJVHLWXSISD-HOSYLAQJSA-N,,,,Identification(5); Physical Data(2); Spectra(5),4.0,2.0,127 - 129,,supporting information,,,,"Article; Caner, Joaquim; Vilarrasa, Jaume; Journal of Organic Chemistry; vol. 75; 14; (2010); p. 4880 - 4883;",https://www.reaxys.com/reaxys/secured/hopinto.do?context=C&query=CNR.CNR%3D8922470&database=RX&origin=ReaxysOutput&ln=
,[2H]C([2H])(O)CCC=C,2038591.0,https://www.reaxys.com/reaxys/secured/hopinto.do?context=S&query=IDE.XRN%3D2038591&database=RX&origin=ReaxysOutput&ln=,(1689 of 4000),76785-16-5,"(1,1-(2)H2)-4-penten-1-ol",C5H8D2O,C5H10O,88.1179,acyclic,,LQAVWYMTUMSFBE-BFWBPSQCSA-N,,,,Identification(9); Physical Data(2); Spectra(6),12.0,7.0,137 - 140,,,,,,Article; Hill; Ni; Journal of Organic Chemistry; vol. 36; (1971); p. 4133;,https://www.reaxys.com/reaxys/secured/hopinto.do?context=C&query=CNR.CNR%3D4050625&database=RX&origin=ReaxysOutput&ln=
,CC(C)=C[14CH2]O,1849257.0,https://www.reaxys.com/reaxys/secured/hopinto.do?context=S&query=IDE.XRN%3D1849257&database=RX&origin=ReaxysOutput&ln=,(1690 of 4000),31335-54-3,"1-14C-3,3-Dimethylallylalkohol; 3-Methylbuten-(2)-ol-(1)-<1-14C>; 3,3-Dimethylallylalkohol-<1-14C>; 3-methyl-[1-14C]but-2-en-1-ol",C4(14)CH10O,C5H10O,88.1228,acyclic,,ASUAYTHWZCLXAN-DOMIDYPGSA-N,,,,Identification(7); Physical Data(1),1.0,3.0,137,,,,,,"Article; Banthrope et al.; Phytochemistry; vol. 16; (1977); p. 85,90, 91;",https://www.reaxys.com/reaxys/secured/hopinto.do?context=C&query=CNR.CNR%3D3933251&database=RX&origin=ReaxysOutput&ln=
,O=C1CSC1,1616449.0,https://www.reaxys.com/reaxys/secured/hopinto.do?context=S&query=IDE.XRN%3D1616449&database=RX&origin=ReaxysOutput&ln=,(1691 of 4000),22131-92-6,thietane-3-one; thietan-3-one; 3-thietanone; 3-Thietanon,C3H4OS,C3H4OS,88.1302,heterocyclic,,DQOHDRDDPZNSQI-UHFFFAOYSA-N,,,,Identification(29); Physical Data(6); Spectra(7),63.0,51.0,63 - 64,,supporting information,,,,"Article; Burkhard, Johannes A.; Guerot, Carine; Knust, Henner; Rogers-Evans, Mark; Carreira, Erick M.; Organic Letters; vol. 12; 9; (2010); p. 1944 - 1947;",https://www.reaxys.com/reaxys/secured/hopinto.do?context=C&query=CNR.CNR%3D8881874&database=RX&origin=ReaxysOutput&ln=
,CCC(C)(C)O,1361351.0,https://www.reaxys.com/reaxys/secured/hopinto.do?context=S&query=IDE.XRN%3D1361351&database=RX&origin=ReaxysOutput&ln=,(1692 of 4000),75-85-4,tert-Amyl alcohol; tert-pentyl alcohol; 2-methyl-2-butanol,(CH3)2(CH3CH2)COH,C5H12O,88.1497,acyclic,,MSXVEPNJUHWQHW-UHFFFAOYSA-N,,,,Identification(309); Physical Data(771); Spectra(87); Bioactivity(105),1216.0,1726.0,264.7,,,,,,"Article; Straka, Martin; Van Genderen, Aad; Ruzicka, Kvetoslav; Ruzicka, Vlastimil; Journal of Chemical and Engineering Data; vol. 52; 3; (2007); p. 794 - 802;",https://www.reaxys.com/reaxys/secured/hopinto.do?context=C&query=CNR.CNR%3D7061517&database=RX&origin=ReaxysOutput&ln=
,CCCCOC,1696931.0,https://www.reaxys.com/reaxys/secured/hopinto.do?context=S&query=IDE.XRN%3D1696931&database=RX&origin=ReaxysOutput&ln=,(1693 of 4000),628-28-4,Butyl methyl ether,C4H9OCH3,C5H12O,88.1497,acyclic,,CXBDYQVECUFKRK-UHFFFAOYSA-N,,,,Identification(276); Physical Data(189); Spectra(27); Bioactivity(22),113.0,432.0,-115.5,,,,,,Article; Timmermans; Bulletin des Societes Chimiques Belges; vol. 38; (1929); p. 505; Chemisches Zentralblatt; vol. 99; I; (1928); p. 27;,https://www.reaxys.com/reaxys/secured/hopinto.do?context=C&query=CNR.CNR%3D1317825&database=RX&origin=ReaxysOutput&ln=
,CCCC(C)O,1718819.0,https://www.reaxys.com/reaxys/secured/hopinto.do?context=S&query=IDE.XRN%3D1718819&database=RX&origin=ReaxysOutput&ln=,(1694 of 4000),6032-29-7,(+/-)-2-pentanol,CH3(CH2)2CH(CH3)OH,C5H12O,88.1497,acyclic,,JYVLIDXNZAXMDK-UHFFFAOYSA-N,,,,Identification(1708); Physical Data(517); Spectra(52); Bioactivity(165),898.0,2833.0,-50,,supporting information,,,,"Article; Liu, Lianghui; Yu, Mengmeng; Wayland, Bradford B.; Fu, Xuefeng; Chemical Communications; vol. 46; 34; (2010); p. 6353 - 6355;",https://www.reaxys.com/reaxys/secured/hopinto.do?context=C&query=CNR.CNR%3D8923579&database=RX&origin=ReaxysOutput&ln=
,CC(C)CCO,1718835.0,https://www.reaxys.com/reaxys/secured/hopinto.do?context=S&query=IDE.XRN%3D1718835&database=RX&origin=ReaxysOutput&ln=,(1695 of 4000),123-51-3,i-Amyl alcohol; 3-Methyl-1-butanol; isoamyl Alcohol,HO(CH2)2CH(CH3)2,C5H12O,88.1497,acyclic,,PHTQWCKDNZKARW-UHFFFAOYSA-N,,,,Identification(1001); Physical Data(961); Spectra(88); Bioactivity(355),3211.0,4501.0,55,,,,,,"Article; Banthrope et al.; Phytochemistry; vol. 16; (1977); p. 85,90, 91;",https://www.reaxys.com/reaxys/secured/hopinto.do?context=C&query=CNR.CNR%3D3933251&database=RX&origin=ReaxysOutput&ln=
,CCCOCC,1730932.0,https://www.reaxys.com/reaxys/secured/hopinto.do?context=S&query=IDE.XRN%3D1730932&database=RX&origin=ReaxysOutput&ln=,(1696 of 4000),628-32-0,ethylpropylether; ethyl n-propyl ether,C5H12O,C5H12O,88.1497,acyclic,,NVJUHMXYKCUMQA-UHFFFAOYSA-N,,,,Identification(98); Physical Data(121); Spectra(20); Bioactivity(12),71.0,228.0,-126.7,,,,,,"Article; Timmermans; Bulletin des Societes Chimiques Belges; vol. 61; (1952); p. 393,396;",https://www.reaxys.com/reaxys/secured/hopinto.do?context=C&query=CNR.CNR%3D1392948&database=RX&origin=ReaxysOutput&ln=
,COC(C)(C)C,1730942.0,https://www.reaxys.com/reaxys/secured/hopinto.do?context=S&query=IDE.XRN%3D1730942&database=RX&origin=ReaxysOutput&ln=,(1697 of 4000),1634-04-4,tert-butyl methyl ether; methyl tert - butyl ether; t-butyl methyl ether,CH3OC(CH3)3,C5H12O,88.1497,acyclic,,BZLVMXJERCGZMT-UHFFFAOYSA-N,,,,Identification(865); Physical Data(988); Spectra(72); Bioactivity(288),1332.0,2250.0,-109,,,,,,"Article; Alquist; Tower; Nr.E 5 A 4&lt;1945&gt;; Chem.Abstr.; (1948); p. 4736;; ; Article; Huang, Hsu-Nan; Persico, Daniel F.; Lagow, Richard J.; Clark, Leland C.; Journal of Organic Chemistry; vol. 53; (1988); p. 78 - 85;; ; Article; Slovokhotov, Yu. L.; Timofeeva, T. V.; Antipin, M. Yu.; Struchkov, Yu. T.; Journal of Molecular Structure; vol. 112; (1984); p. 127 - 140;",https://www.reaxys.com/reaxys/secured/hopinto.do?context=C&query=CNR.CNR%3D1358381&database=RX&origin=ReaxysOutput&ln=
,CCC(O)CC,1730964.0,https://www.reaxys.com/reaxys/secured/hopinto.do?context=S&query=IDE.XRN%3D1730964&database=RX&origin=ReaxysOutput&ln=,(1698 of 4000),584-02-1,3-pentanol; 2-pentanol,(C2H5)2CHOH,C5H12O,88.1497,acyclic,,AQIXEPGDORPWBJ-UHFFFAOYSA-N,,,,Identification(817); Physical Data(310); Spectra(61); Bioactivity(113),1093.0,1878.0,203.17,,,,,,"Article; Straka, Martin; Van Genderen, Aad; Ruzicka, Kvetoslav; Ruzicka, Vlastimil; Journal of Chemical and Engineering Data; vol. 52; 3; (2007); p. 794 - 802;",https://www.reaxys.com/reaxys/secured/hopinto.do?context=C&query=CNR.CNR%3D7061517&database=RX&origin=ReaxysOutput&ln=
,CCCCCO,1730975.0,https://www.reaxys.com/reaxys/secured/hopinto.do?context=S&query=IDE.XRN%3D1730975&database=RX&origin=ReaxysOutput&ln=,(1699 of 4000),71-41-0,pentan-1-ol; n-pentan-1-ol; 1-Pentanol,HO(CH2)4CH3,C5H12O,88.1497,acyclic,,AMQJEAYHLZJPGS-UHFFFAOYSA-N,,,,Identification(798); Physical Data(2711); Spectra(159); Bioactivity(431),4502.0,6008.0,-79,,supporting information,,,,"Article; Liu, Lianghui; Yu, Mengmeng; Wayland, Bradford B.; Fu, Xuefeng; Chemical Communications; vol. 46; 34; (2010); p. 6353 - 6355;",https://www.reaxys.com/reaxys/secured/hopinto.do?context=C&query=CNR.CNR%3D8923579&database=RX&origin=ReaxysOutput&ln=
,CC(C)(C)CO,1730984.0,https://www.reaxys.com/reaxys/secured/hopinto.do?context=S&query=IDE.XRN%3D1730984&database=RX&origin=ReaxysOutput&ln=,(1700 of 4000),75-84-3,"2,2-dimethyl-propanol-1; Neopentyl alcohol; Neopentanol",C(CH3)3CH2OH,C5H12O,88.1497,acyclic,,KPSSIOMAKSHJJG-UHFFFAOYSA-N,,,,Identification(374); Physical Data(164); Spectra(66); Bioactivity(85),1910.0,1642.0,55.04,,,,,,"Article; Straka, Martin; Van Genderen, Aad; Ruzicka, Kvetoslav; Ruzicka, Vlastimil; Journal of Chemical and Engineering Data; vol. 52; 3; (2007); p. 794 - 802;",https://www.reaxys.com/reaxys/secured/hopinto.do?context=C&query=CNR.CNR%3D7061517&database=RX&origin=ReaxysOutput&ln=
,CN(C)CCN,605279.0,https://www.reaxys.com/reaxys/secured/hopinto.do?context=S&query=IDE.XRN%3D605279&database=RX&origin=ReaxysOutput&ln=,(1701 of 4000),108-00-9,"N,N-dimethylethylenediamine; N,N-dimethyl-1,2-diaminoethane; N,N-dimethylethane-1,2-diamine; N,N-dimethylenthylenediamine",NH2C2H4N(CH3)2,C4H12N2,88.1527,acyclic,,DILRJUIACXKSQE-UHFFFAOYSA-N,,,,Identification(957); Physical Data(82); Spectra(22); Bioactivity(272),6864.0,5168.0,179 - 180,,,,,,"Patent; NIPPON ZOKI PHARMACEUTICAL CO., LTD; US4808618; (1989); A;",https://www.reaxys.com/reaxys/secured/hopinto.do?context=C&query=CNR.CNR%3D81564&database=RX&origin=ReaxysOutput&ln=