Structure: Image,SMILES,Substance Identification: Reaxys Registry Number,Links to Reaxys,Data Count,CAS Registry Number,Chemical Name,Linear Structure Formula,Molecular Formula,Molecular Weight,Type of Substance,Type and Modification,InChI Key,Composition: Comp. Name,Composition: Comp. Conc.,Composition: Comp. Attrib.,Field Availability,Number of Reactions,Number of References,Melting Point: Melting Point [C],Solvent (Melting Point),Location,Comment (Melting Point),Crystallizes With,Amount (Melting Point) [mol],References,Links to Reaxys.1
,OC(O)CC#N,7017408.0,https://www.reaxys.com/reaxys/secured/hopinto.do?context=S&query=IDE.XRN%3D7017408&database=RX&origin=ReaxysOutput&ln=,(1539 of 4000),160429-01-6,"3,3-dihydroxypropanenitrile; cyanoacetaldehyde acetal; acetonitrile-methanol",C3H5NO2,C3H5NO2,87.0782,acyclic,,ZZGYFGOWVHDXNM-UHFFFAOYSA-N,,,,Identification(509); Physical Data(1); Spectra(2),10.0,511.0,223 - 226,,,,,,Patent; ROCHE HOLDING AG; US4471116; (1984); A;,https://www.reaxys.com/reaxys/secured/hopinto.do?context=C&query=CNR.CNR%3D7094024&database=RX&origin=ReaxysOutput&ln=
,COC(=O)C=N,22776860.0,https://www.reaxys.com/reaxys/secured/hopinto.do?context=S&query=IDE.XRN%3D22776860&database=RX&origin=ReaxysOutput&ln=,(1540 of 4000),128474-85-1; 1338236-21-7; 1338236-24-0,methyl iminoacetate; methyl glyoxylate oxime,C3H5NO2,C3H5NO2,87.0782,,,NJRWPMOKVNBWCX-UHFFFAOYSA-N,,,,Identification(6); Physical Data(3); Spectra(6),4.0,2.0,53 - 55,,,,,,"Article; Hallett, David J.; Tanikkul, Nongluk; Thomas, Eric J.; Organic and Biomolecular Chemistry; vol. 10; 30; (2012); p. 6130 - 6158;",https://www.reaxys.com/reaxys/secured/hopinto.do?context=C&query=CNR.CNR%3D20178318&database=RX&origin=ReaxysOutput&ln=
,NC(=O)NN=C,1745321.0,https://www.reaxys.com/reaxys/secured/hopinto.do?context=S&query=IDE.XRN%3D1745321&database=RX&origin=ReaxysOutput&ln=,(1541 of 4000),14066-69-4,formaldehyde semicarbazone; Formaldehyd-semicarbazon,C2H5N3O,C2H5N3O,87.0812,acyclic,,ZXLNOQLIBVACTD-UHFFFAOYSA-N,,,,Identification(7); Physical Data(6); Spectra(5),3.0,5.0,163.84 - 164.84,,,,,,"Article; Rukmangathan, Muthusamy; Santhoshkumar, Vetrivel; Ramkumar, Balasubramanian; Zeitschrift fur Physikalische Chemie; vol. 230; 8; (2016); p. 1139 - 1152;",https://www.reaxys.com/reaxys/secured/hopinto.do?context=C&query=CNR.CNR%3D69483066&database=RX&origin=ReaxysOutput&ln=
,NC(=N)NC=O,1745349.0,https://www.reaxys.com/reaxys/secured/hopinto.do?context=S&query=IDE.XRN%3D1745349&database=RX&origin=ReaxysOutput&ln=,(1542 of 4000),4471-51-6,Formyl-guanidin; formylguanidine; N-(aminoiminomethyl)formamide; N-formyl-guanidine,HCONHC(NH)NH2,C2H5N3O,87.0812,acyclic,,XEBPBJPZBUSUEO-UHFFFAOYSA-N,,,,Identification(8); Physical Data(5),11.0,16.0,178,dimethylformamide,,,,,"Article; Bredereck et al.; Chemische Berichte; vol. 94; (1961); p. 1883,1889;",https://www.reaxys.com/reaxys/secured/hopinto.do?context=C&query=CNR.CNR%3D821242&database=RX&origin=ReaxysOutput&ln=
,NN=CC=NO,7867264.0,https://www.reaxys.com/reaxys/secured/hopinto.do?context=S&query=IDE.XRN%3D7867264&database=RX&origin=ReaxysOutput&ln=,(1543 of 4000),155944-18-6,Glyoxal monohydrazone monooxime,C2H5N3O,C2H5N3O,87.0812,acyclic,,RRMBYVDOTZXXFD-UHFFFAOYSA-N,,,,Identification(5); Physical Data(1); Spectra(3),6.0,2.0,96 - 97,,,,,,"Article; Harada, Katsumasa; Oda, Mizuho; Matsushita, Akio; Shirai, Masashi; Synlett; 4; (1998); p. 431 - 433;",https://www.reaxys.com/reaxys/secured/hopinto.do?context=C&query=CNR.CNR%3D6083364&database=RX&origin=ReaxysOutput&ln=
,[2H]\C(=C/C)C(O)=O,2235334.0,https://www.reaxys.com/reaxys/secured/hopinto.do?context=S&query=IDE.XRN%3D2235334&database=RX&origin=ReaxysOutput&ln=,(1544 of 4000),69104-47-8; 94991-67-0; 94991-68-1,trans-2-butenoic-2-d acid; α-D-Crotonsaeure; trans-<α-2H>Crotonsaeure; (E)-2-deuterio-but-2-enoic acid,C4H5DO2,C4H6O2,87.0825,acyclic,,LDHQCZJRKDOVOX-KUAXYZABSA-N,,,,Identification(6); Physical Data(1); Spectra(3),6.0,5.0,68,,,,,,"Article; Elvidge et al.; Journal of the Chemical Society. Perkin transactions I; (1978); p. 1191,1193;",https://www.reaxys.com/reaxys/secured/hopinto.do?context=C&query=CNR.CNR%3D3648822&database=RX&origin=ReaxysOutput&ln=
,[2H]C=CC(=O)OC,2426919.0,https://www.reaxys.com/reaxys/secured/hopinto.do?context=S&query=IDE.XRN%3D2426919&database=RX&origin=ReaxysOutput&ln=,(1545 of 4000),6998-81-8,3-deuterio-acrylic acid methyl ester,C4H5DO2,C4H6O2,87.0825,acyclic,,BAPJBEWLBFYGME-MICDWDOJSA-N,,,,Identification(7); Physical Data(1); Spectra(1),1.0,1.0,26.5 - 28,,,,,,"Article; Grevels et al.; Journal of Organometallic Chemistry; vol. 91; (1975); p. 341,351,354;",https://www.reaxys.com/reaxys/secured/hopinto.do?context=C&query=CNR.CNR%3D2689811&database=RX&origin=ReaxysOutput&ln=
,[H-].[Al+3].CC[N-]C,17643165.0,https://www.reaxys.com/reaxys/secured/hopinto.do?context=S&query=IDE.XRN%3D17643165&database=RX&origin=ReaxysOutput&ln=,(1546 of 4000),,N-methyl-ethylamido-aluminium dihydride,Al(3+)*2H(1-)*N(CH3)(C2H5)(1-)=[H2AlN(CH3)(C2H5)],Al*C3H8N*2H,87.1006,Coordination compound,,JZSGQZGOZACTMV-UHFFFAOYSA-N,,,,Identification(5); Physical Data(2); Spectra(3),1.0,1.0,61.2,,,,,,"Article; Duemichen, Ulf; Gelbrich, Thomas; Sieler, Joachim; Zeitschrift fur Anorganische und Allgemeine Chemie; vol. 625; 2; (1999); p. 262 - 268; (from Gmelin)",https://www.reaxys.com/reaxys/secured/hopinto.do?context=C&query=CNR.CNR%3D8112693&database=RX&origin=ReaxysOutput&ln=
,ON1CCCC1,102531.0,https://www.reaxys.com/reaxys/secured/hopinto.do?context=S&query=IDE.XRN%3D102531&database=RX&origin=ReaxysOutput&ln=,(1547 of 4000),5904-62-1,pyrrolidin-1-ol; N-hydroxypyrrolidine,C4H8N(OH),C4H9NO,87.1216,heterocyclic,,CWLUFVAFWWNXJZ-UHFFFAOYSA-N,,,,Identification(48); Physical Data(11); Spectra(5),24.0,71.0,13 - 17,,,,,,"Article; Zinner,G.; Moll,R.; Chemische Berichte; vol. 99; (1966); p. 1292 - 1298;",https://www.reaxys.com/reaxys/secured/hopinto.do?context=C&query=CNR.CNR%3D38674&database=RX&origin=ReaxysOutput&ln=
,C1COCCN1,102549.0,https://www.reaxys.com/reaxys/secured/hopinto.do?context=S&query=IDE.XRN%3D102549&database=RX&origin=ReaxysOutput&ln=,(1548 of 4000),110-91-8,morpholine; Morpholin,NC4H9O,C4H9NO,87.1216,heterocyclic,,YNAVUWVOSKDBBP-UHFFFAOYSA-N,,,,Identification(6070); Physical Data(535); Spectra(77); Bioactivity(1953),53295.0,37781.0,-3.1,,,,,,Article; Talasek; Collection of Czechoslovak Chemical Communications; vol. 33; 3; (1968); p. 731;,https://www.reaxys.com/reaxys/secured/hopinto.do?context=C&query=CNR.CNR%3D5193516&database=RX&origin=ReaxysOutput&ln=
,CCOC(C)=N,741893.0,https://www.reaxys.com/reaxys/secured/hopinto.do?context=S&query=IDE.XRN%3D741893&database=RX&origin=ReaxysOutput&ln=,(1549 of 4000),1000-84-6,O-ethyl acetimidate; ethyl acetimidate,HNC(CH3)(OC2H5),C4H9NO,87.1216,acyclic,,JMIAPORGEDIDLT-UHFFFAOYSA-N,,,,Identification(79); Physical Data(35); Spectra(15); Bioactivity(15),406.0,263.0,107 - 108,,,,,,"Article; Meyers,A.I. et al.; Journal of the American Chemical Society; vol. 98; (1976); p. 567 - 576;",https://www.reaxys.com/reaxys/secured/hopinto.do?context=C&query=CNR.CNR%3D70326&database=RX&origin=ReaxysOutput&ln=
,CCNC(C)=O,969292.0,https://www.reaxys.com/reaxys/secured/hopinto.do?context=S&query=IDE.XRN%3D969292&database=RX&origin=ReaxysOutput&ln=,(1550 of 4000),625-50-3,N-ethylacetamide,CH3CONHC2H5,C4H9NO,87.1216,acyclic,,PMDCZENCAXMSOU-UHFFFAOYSA-N,,,,Identification(192); Physical Data(166); Spectra(78); Bioactivity(23),174.0,459.0,190,,,,,,Article; Rajan; Asian Journal of Chemistry; vol. 27; 1; (2015); p. 287 - 291;,https://www.reaxys.com/reaxys/secured/hopinto.do?context=C&query=CNR.CNR%3D64557470&database=RX&origin=ReaxysOutput&ln=
,CC(C)C=NO,1209325.0,https://www.reaxys.com/reaxys/secured/hopinto.do?context=S&query=IDE.XRN%3D1209325&database=RX&origin=ReaxysOutput&ln=,(1551 of 4000),151-00-8,isobutyraldehyde oxime; isobutyraldoxime; 2-methylpropanal oxime,(CH3)2CHCHNOH,C4H9NO,87.1216,acyclic,,SYJPAKDNFZLSMV-UHFFFAOYSA-N,,,,Identification(31); Physical Data(24); Spectra(9),121.0,138.0,-80,,,,,,Article; Dunstan; Dymond; Journal of the Chemical Society; vol. 65; (1894); p. 216;,https://www.reaxys.com/reaxys/secured/hopinto.do?context=C&query=CNR.CNR%3D1299354&database=RX&origin=ReaxysOutput&ln=
,CCCC(N)=O,1361528.0,https://www.reaxys.com/reaxys/secured/hopinto.do?context=S&query=IDE.XRN%3D1361528&database=RX&origin=ReaxysOutput&ln=,(1552 of 4000),541-35-5,Butyramid; butanamide; Butanamid,C3H7C(O)NH2,C4H9NO,87.1216,acyclic,,DNSISZSEWVHGLH-UHFFFAOYSA-N,,,,Identification(433); Physical Data(181); Spectra(89); Bioactivity(54),397.0,921.0,115 - 117,,supporting information,,,,"Article; Marcé, Patricia; Lynch, James; Blacker, A. John; Williams, Jonathan M. J.; Chemical Communications; vol. 52; 7; (2016); p. 1436 - 1438;; ; Article; Sanz Sharley, Daniel D.; Williams, Jonathan M.J.; Tetrahedron Letters; vol. 58; 43; (2017); p. 4090 - 4093;",https://www.reaxys.com/reaxys/secured/hopinto.do?context=C&query=CNR.CNR%3D68002101&database=RX&origin=ReaxysOutput&ln=
,CCC(C)=NO,1698241.0,https://www.reaxys.com/reaxys/secured/hopinto.do?context=S&query=IDE.XRN%3D1698241&database=RX&origin=ReaxysOutput&ln=,(1553 of 4000),96-29-7,ethyl methyl ketone oxime,CH3C(CH2CH3)NOH,C4H9NO,87.1216,acyclic,,WHIVNJATOVLWBW-UHFFFAOYSA-N,,,,Identification(81); Physical Data(73); Spectra(22); Bioactivity(28),337.0,365.0,-29.5,,,,,,Article; Timmermans; Mattaar; vol. 30; p. 218; Chemisches Zentralblatt; vol. 92; III; (1921); p. 1266;,https://www.reaxys.com/reaxys/secured/hopinto.do?context=C&query=CNR.CNR%3D1322715&database=RX&origin=ReaxysOutput&ln=
,[H][C@@](O)(CN)C=C,1720113.0,https://www.reaxys.com/reaxys/secured/hopinto.do?context=S&query=IDE.XRN%3D1720113&database=RX&origin=ReaxysOutput&ln=,(1554 of 4000),1197992-11-2,(-)-1-Amino-3-buten-2-ol; (S)-1-amino-but-3-en-2-ol,C4H9NO,C4H9NO,87.1216,acyclic,,VEPSIZZAILVTSD-BYPYZUCNSA-N,,,,Identification(8); Physical Data(3),1.0,3.0,52 - 53,,,,,,"Article; Bottini,A.T.; Dev,V.; Journal of Organic Chemistry; vol. 27; (1962); p. 968 - 973;",https://www.reaxys.com/reaxys/secured/hopinto.do?context=C&query=CNR.CNR%3D175190&database=RX&origin=ReaxysOutput&ln=
,[H]C(O)(CN)C=C,1720115.0,https://www.reaxys.com/reaxys/secured/hopinto.do?context=S&query=IDE.XRN%3D1720115&database=RX&origin=ReaxysOutput&ln=,(1555 of 4000),13269-47-1,1-amino-3-buten-2-ol; 1-amino-but-3-en-2-ol,C4H9NO,C4H9NO,87.1216,acyclic,,VEPSIZZAILVTSD-UHFFFAOYSA-N,,,,Identification(7); Physical Data(12); Spectra(7),36.0,24.0,33 - 37,,,,,,"Article; Ettlinger; Journal of the American Chemical Society; vol. 72; (1950); p. 4792,4795;",https://www.reaxys.com/reaxys/secured/hopinto.do?context=C&query=CNR.CNR%3D761712&database=RX&origin=ReaxysOutput&ln=
,CC(C)\C=N/O,1720116.0,https://www.reaxys.com/reaxys/secured/hopinto.do?context=S&query=IDE.XRN%3D1720116&database=RX&origin=ReaxysOutput&ln=,(1556 of 4000),5780-39-2,2-methylpropanal oxime; (Z)-2-methylpropanoylaldoxime; isobutyraldehyde oxime; (Z)-2-methyl prapanal oxime; trans-1-Hydroxyimino-2-methyl-propan; 2-methylpropionamide oxime; Isobutyraldehyd-oxim; anti-Isobutyraldoxim; isobutyraldoxime; Isobutyraldoxim; isobutyraldehyde (Z)-oxime; Isobutyraldehyd-(Z)-oxim; Z-isobutyraldoxime,C4H9NO,C4H9NO,87.1216,acyclic,,SYJPAKDNFZLSMV-HYXAFXHYSA-N,,,,Identification(25); Physical Data(4); Spectra(11),4.0,27.0,28 - 30,,,,,,Article; Pejkovic-Tadic et al.; vol. 21; (1966); p. 241;,https://www.reaxys.com/reaxys/secured/hopinto.do?context=C&query=CNR.CNR%3D1431422&database=RX&origin=ReaxysOutput&ln=
,CC(C)(C)N=O,1737613.0,https://www.reaxys.com/reaxys/secured/hopinto.do?context=S&query=IDE.XRN%3D1737613&database=RX&origin=ReaxysOutput&ln=,(1557 of 4000),917-95-3,t-butylnitrite; 2-methyl-2-nitrosopropane,CH3C(CH3)(NO)CH3,C4H9NO,87.1216,acyclic,,LUQZKEZPFQRRRK-UHFFFAOYSA-N,,,,Identification(192); Physical Data(46); Spectra(69); Bioactivity(37),730.0,602.0,93.35,methanol,,,,,"Article; Verma, Sushil Kumar; Moerke, Wolfgang; Reinhard, Michael; Wendler, Karin; Fedtke, Manfred; Zeitschrift fur Chemie; vol. 22; 12; (1982); p. 454 - 455;",https://www.reaxys.com/reaxys/secured/hopinto.do?context=C&query=CNR.CNR%3D5690855&database=RX&origin=ReaxysOutput&ln=
,CN(C)C(C)=O,1737614.0,https://www.reaxys.com/reaxys/secured/hopinto.do?context=S&query=IDE.XRN%3D1737614&database=RX&origin=ReaxysOutput&ln=,(1558 of 4000),127-19-5,"N,N-dimethyl acetamide; DIMETHYLACETAMIDE; DMAA; DMA",H3CC(O)N(CH3)2,C4H9NO,87.1216,acyclic,,FXHOOIRPVKKKFG-UHFFFAOYSA-N,,,,Identification(25269); Physical Data(1331); Spectra(345); Bioactivity(1471),5215.0,28802.0,-22.66,,,,,,"Article; Cobos Huerga, Ana; González, Juan Antonio; Hofman, Tadeusz; Królikowski, Marek; Sikorski, Patryk; Journal of Molecular Liquids; vol. 318; (2020);",https://www.reaxys.com/reaxys/secured/hopinto.do?context=C&query=CNR.CNR%3D80910361&database=RX&origin=ReaxysOutput&ln=
,CC(C)C(N)=O,1737615.0,https://www.reaxys.com/reaxys/secured/hopinto.do?context=S&query=IDE.XRN%3D1737615&database=RX&origin=ReaxysOutput&ln=,(1559 of 4000),563-83-7,ISOPROPYLAMIDE; Isobutyramide,(CH3)2CHC(O)NH2,C4H9NO,87.1216,acyclic,,WFKAJVHLWXSISD-UHFFFAOYSA-N,,,,Identification(523); Physical Data(248); Spectra(34); Bioactivity(81),415.0,960.0,127.89,,,,,,"Article; Li, Yajun; Wu, Kui; Journal of Molecular Liquids; vol. 311; (2020);",https://www.reaxys.com/reaxys/secured/hopinto.do?context=C&query=CNR.CNR%3D79827242&database=RX&origin=ReaxysOutput&ln=
,CCC(=O)NC,1737640.0,https://www.reaxys.com/reaxys/secured/hopinto.do?context=S&query=IDE.XRN%3D1737640&database=RX&origin=ReaxysOutput&ln=,(1560 of 4000),1187-58-2,N-methylpropanamide; N-methyl propionamide,OC(C2H5)NHCH3,C4H9NO,87.1216,acyclic,,QJQAMHYHNCADNR-UHFFFAOYSA-N,,,,Identification(151); Physical Data(158); Spectra(65),73.0,314.0,,,,,,,"Article; Hoover; Journal of Physical Chemistry; vol. 68; (1964); p. 876,878;",https://www.reaxys.com/reaxys/secured/hopinto.do?context=C&query=CNR.CNR%3D3924732&database=RX&origin=ReaxysOutput&ln=
,COC1(N)CC1,1918972.0,https://www.reaxys.com/reaxys/secured/hopinto.do?context=S&query=IDE.XRN%3D1918972&database=RX&origin=ReaxysOutput&ln=,(1561 of 4000),63910-64-5,1-Methoxy-cyclopropyl-amin,C4H9NO,C4H9NO,87.1216,isocyclic,,WTLDDMZDICPROB-UHFFFAOYSA-N,,,,Identification(8); Physical Data(2); Spectra(3),1.0,2.0,106 - 108,,,,,,Patent; Astra Lakemedel Akt.; Schweden; FR2354762; (1978); B1; Chem.Abstr.; vol. 87; 134025; Chem.Abstr.; vol. 87; 134025;,https://www.reaxys.com/reaxys/secured/hopinto.do?context=C&query=CNR.CNR%3D4150386&database=RX&origin=ReaxysOutput&ln=
,CN(C)(=O)C=C,3042701.0,https://www.reaxys.com/reaxys/secured/hopinto.do?context=S&query=IDE.XRN%3D3042701&database=RX&origin=ReaxysOutput&ln=,(1562 of 4000),66172-59-6,"N,N-dimethylvinylamine N-oxide; N,N-Dimethyl-vinylamin-N-oxid",C4H9NO,C4H9NO,87.1216,acyclic,,VIVDKBXHJRBESW-UHFFFAOYSA-N,,,,Identification(7); Physical Data(2); Spectra(5),2.0,2.0,96 - 100,,,,,,"Article; Krouwer,J.S.; Richmond,J.R.; Journal of Organic Chemistry; vol. 43; (1978); p. 2464 - 2466;",https://www.reaxys.com/reaxys/secured/hopinto.do?context=C&query=CNR.CNR%3D193766&database=RX&origin=ReaxysOutput&ln=
,N[C@H]1CC[C@H]1O,4949587.0,https://www.reaxys.com/reaxys/secured/hopinto.do?context=S&query=IDE.XRN%3D4949587&database=RX&origin=ReaxysOutput&ln=,(1563 of 4000),68235-32-5; 71347-12-1; 72320-39-9; 82588-30-5; 143740-59-4,(+/-)-cis-2-aminocyclobutanol,C4H9NO,C4H9NO,87.1216,isocyclic,racemate,WXKBWWIWJCCING-IUYQGCFVSA-N,,,,Identification(8); Physical Data(1); Spectra(1),7.0,5.0,58 - 60,,,,,,"Article; Scholz,K.-H. et al.; Tetrahedron Letters; (1978); p. 1467 - 1470;; ; Article; Hartmann, Willy; Scholz, Karl-Heinz; Heine, Hans-Georg; Chemische Berichte; vol. 113; 5; (1980); p. 1884 - 1889;",https://www.reaxys.com/reaxys/secured/hopinto.do?context=C&query=CNR.CNR%3D227102&database=RX&origin=ReaxysOutput&ln=
,N[C@@H]1CC[C@H]1O,5725880.0,https://www.reaxys.com/reaxys/secured/hopinto.do?context=S&query=IDE.XRN%3D5725880&database=RX&origin=ReaxysOutput&ln=,(1564 of 4000),68235-32-5; 71347-12-1; 72320-39-9; 82588-30-5; 143740-59-4,(+/-)-(trans)-2-aminocyclobutanol,C4H9NO,C4H9NO,87.1216,isocyclic,racemate,WXKBWWIWJCCING-QWWZWVQMSA-N,,,,Identification(7); Physical Data(1); Spectra(1),4.0,3.0,82 - 83,benzene,,,,,"Article; Hartmann, Willy; Scholz, Karl-Heinz; Heine, Hans-Georg; Chemische Berichte; vol. 113; 5; (1980); p. 1884 - 1889;",https://www.reaxys.com/reaxys/secured/hopinto.do?context=C&query=CNR.CNR%3D5685375&database=RX&origin=ReaxysOutput&ln=
,C[C@@H]1N[C@@H]1CO,7196605.0,https://www.reaxys.com/reaxys/secured/hopinto.do?context=S&query=IDE.XRN%3D7196605&database=RX&origin=ReaxysOutput&ln=,(1565 of 4000),,"((2S,3S)-3-methyl-2-aziridinyl)methanol",C4H9NO,C4H9NO,87.1216,heterocyclic,,XAFYGYPPCDFUCZ-IUYQGCFVSA-N,,,,Identification(5); Physical Data(2); Spectra(5),4.0,3.0,83 - 85,,,Crystallization with 0.1 Mol(s) H2O,,,"Article; Andersson, Pher G.; Guijarro, David; Tanner, David; Journal of Organic Chemistry; vol. 62; 21; (1997); p. 7364 - 7375;",https://www.reaxys.com/reaxys/secured/hopinto.do?context=C&query=CNR.CNR%3D6079128&database=RX&origin=ReaxysOutput&ln=
,CN(C)C(N)=N,635817.0,https://www.reaxys.com/reaxys/secured/hopinto.do?context=S&query=IDE.XRN%3D635817&database=RX&origin=ReaxysOutput&ln=,(1566 of 4000),6145-42-2,"N,N-Dimethyl-guanidine; 1,1-dimethylguanidine; DMG",H2NC(NH)N(CH3)2,C3H9N3,87.1246,acyclic,,SWSQBOPZIKWTGO-UHFFFAOYSA-N,,,,Identification(72); Physical Data(22); Spectra(7); Bioactivity(10),140.0,174.0,148 - 153,,,,,,"Article; Nishimura; Kitajima; Journal of Organic Chemistry; vol. 44; (1979); p. 818,822;",https://www.reaxys.com/reaxys/secured/hopinto.do?context=C&query=CNR.CNR%3D2777666&database=RX&origin=ReaxysOutput&ln=
,CCNC(N)=N,1740497.0,https://www.reaxys.com/reaxys/secured/hopinto.do?context=S&query=IDE.XRN%3D1740497&database=RX&origin=ReaxysOutput&ln=,(1567 of 4000),503-69-5,ethyl guanidine; N-ethyl-guanidine,C3H9N3,C3H9N3,87.1246,acyclic,,KEWLVUBYGUZFKX-UHFFFAOYSA-N,,,,Identification(45); Physical Data(4); Spectra(4); Bioactivity(4),51.0,69.0,210 - 212,H2O; methanol,,,,,"Article; Pant,E.; Hoppe-Seyler's Zeitschrift fur Physiologische Chemie; vol. 335; (1964); p. 272 - 274;",https://www.reaxys.com/reaxys/secured/hopinto.do?context=C&query=CNR.CNR%3D252088&database=RX&origin=ReaxysOutput&ln=
,C1NC=CS1,1098542.0,https://www.reaxys.com/reaxys/secured/hopinto.do?context=S&query=IDE.XRN%3D1098542&database=RX&origin=ReaxysOutput&ln=,(1568 of 4000),6569-17-1,"1,3-thiazole; 2,3-dihydro-1,3-thiazole; Δ4-Dihydrothiazol; 2,5-dihydro-thiazole; dihydro-thiazole; 2,3-dihydrothiazole; 2,5-thiazolene; 4-thiazoline",C3H5NS,C3H5NS,87.1454,heterocyclic,,OYJGEOAXBALSMM-UHFFFAOYSA-N,,,,Identification(41); Physical Data(2); Spectra(7),6.0,46.0,98 - 100,,,,,,Patent; ARIZONA BOARD OF REGENTS; US4978744; (1990); A;,https://www.reaxys.com/reaxys/secured/hopinto.do?context=C&query=CNR.CNR%3D114739&database=RX&origin=ReaxysOutput&ln=
,CCSC#N,1737620.0,https://www.reaxys.com/reaxys/secured/hopinto.do?context=S&query=IDE.XRN%3D1737620&database=RX&origin=ReaxysOutput&ln=,(1569 of 4000),542-90-5,Ethyl thiocyanate; ethyl isothiocyanate,C2H5SCN,C3H5NS,87.1454,acyclic,,WFCLYEAZTHWNEH-UHFFFAOYSA-N,,,,Identification(53); Physical Data(87); Spectra(53); Bioactivity(15),275.0,267.0,-83.8,,,,,,"Article; Gillis, J.; Eeckhout, J.; (1939); p. 21 - 26;; ; Article; Gmelin Handbuch der Anorganischen Chemie; vol. Co: SVol.A; 237, page 722 - 724; (from Gmelin)",https://www.reaxys.com/reaxys/secured/hopinto.do?context=C&query=CNR.CNR%3D7517186&database=RX&origin=ReaxysOutput&ln=