Structure: Image,SMILES,Substance Identification: Reaxys Registry Number,Links to Reaxys,Data Count,CAS Registry Number,Chemical Name,Linear Structure Formula,Molecular Formula,Molecular Weight,Type of Substance,Type and Modification,InChI Key,Composition: Comp. Name,Composition: Comp. Conc.,Composition: Comp. Attrib.,Field Availability,Number of Reactions,Number of References,Melting Point: Melting Point [C],Solvent (Melting Point),Location,Comment (Melting Point),Crystallizes With,Amount (Melting Point) [mol],References,Links to Reaxys.1
,[H]B([H])[H].CCNCC,4134906.0,https://www.reaxys.com/reaxys/secured/hopinto.do?context=S&query=IDE.XRN%3D4134906&database=RX&origin=ReaxysOutput&ln=,(1504 of 4000),,Diethylamin*BH3,(C2H5)2NH*BH3,BH3*C4H11N,86.9729,acyclic; Coordination compound,,VDTVZBCTOQDZSH-UHFFFAOYSA-N,,,,Identification(9); Physical Data(8),13.0,20.0,-24 - -20,,,,,,"Article; Mikhailov,B.M.; Dorokhov,V.A.; Doklady Chemistry; vol. 136; (1961); p. 51 - 54; Doklady Akademii Nauk SSSR; vol. 136; 2; (1961); p. 356 - 359;",https://www.reaxys.com/reaxys/secured/hopinto.do?context=C&query=CNR.CNR%3D245351&database=RX&origin=ReaxysOutput&ln=
,O=N(=O)NC#N,1746595.0,https://www.reaxys.com/reaxys/secured/hopinto.do?context=S&query=IDE.XRN%3D1746595&database=RX&origin=ReaxysOutput&ln=,(1509 of 4000),62132-79-0,nitrocyanamide; Nitrocyanamin; cyano-nitro-amine; Nitrocyanamid; Cyan-nitro-amin; Nitrocarbamonitril,CHN3O2,CHN3O2,87.0378,acyclic,,ZNPKAOCQMDJBIK-UHFFFAOYSA-N,,,,Identification(13); Physical Data(1); Spectra(2),5.0,12.0,137 - 138,,,with:1 Mol.H2O (solvent).,,,"Article; Harris; Journal of the American Chemical Society; vol. 80; (1958); p. 2302,2304;",https://www.reaxys.com/reaxys/secured/hopinto.do?context=C&query=CNR.CNR%3D1494562&database=RX&origin=ReaxysOutput&ln=
,O=N(=O)C=[N]#N,1923190.0,https://www.reaxys.com/reaxys/secured/hopinto.do?context=S&query=IDE.XRN%3D1923190&database=RX&origin=ReaxysOutput&ln=,(1510 of 4000),13994-39-3,nitrodiazomethane; Nitrodiazomethan,CHN3O2,CHN3O2,87.0378,acyclic,,VDDURTNWOZYFOB-UHFFFAOYSA-N,,,,Identification(10); Physical Data(1); Spectra(8),28.0,11.0,55,,,,,,"Article; Schoellkopf,U.; Markusch,P.; Justus Liebigs Annalen der Chemie; vol. 753; (1971); p. 143 - 150;; ; Article; Schoellkopf; Markusch; Tetrahedron Letters; (1966); p. 6199;",https://www.reaxys.com/reaxys/secured/hopinto.do?context=C&query=CNR.CNR%3D79490&database=RX&origin=ReaxysOutput&ln=
,O[14C](=O)CC#N,1855103.0,https://www.reaxys.com/reaxys/secured/hopinto.do?context=S&query=IDE.XRN%3D1855103&database=RX&origin=ReaxysOutput&ln=,(1511 of 4000),80404-18-8,<14C>-Cyanessigsaeure; cyano-[1-14C]acetic acid,C2(14)CH3NO2,C3H3NO2,87.0513,acyclic,,MLIREBYILWEBDM-YZRHJBSPSA-N,,,,Identification(5); Physical Data(1),1.0,1.0,64 - 66,,,,,,"Article; Schiedt; Boeckh-Behrens; Hoppe-Seyler's Zeitschrift fur Physiologische Chemie; vol. 330; (1962); p. 58,63;",https://www.reaxys.com/reaxys/secured/hopinto.do?context=C&query=CNR.CNR%3D3865517&database=RX&origin=ReaxysOutput&ln=
,[2H]OC1=NN([2H])C=C1[2H],32492085.0,https://www.reaxys.com/reaxys/secured/hopinto.do?context=S&query=IDE.XRN%3D32492085&database=RX&origin=ReaxysOutput&ln=,(1512 of 4000),,3(5)-hydroxypyrazole-d3,C3H(2)H3N2O,C3H4N2O,87.0537,,,XBYRMPXUBGMOJC-AYQNKDEESA-N,,,,Identification(5); Physical Data(2); Spectra(3),1.0,1.0,147 - 148,,,,,,"Article; Ahmed, Basil M.; Mezei, Gellert; Journal of Organic Chemistry; vol. 83; 3; (2018); p. 1649 - 1653;",https://www.reaxys.com/reaxys/secured/hopinto.do?context=C&query=CNR.CNR%3D73086345&database=RX&origin=ReaxysOutput&ln=
,NC1=N[15N]=[15N]N1,26561484.0,https://www.reaxys.com/reaxys/secured/hopinto.do?context=S&query=IDE.XRN%3D26561484&database=RX&origin=ReaxysOutput&ln=,(1513 of 4000),1519823-16-5,"[2,3-15N2]-1H-5-aminotetrazole; [2,3-15N2]-5-aminotetrazole",CH3N3(15)N2,CH3N5,87.0549,,,ULRPISSMEBPJLN-MPOCSFTDSA-N,,,,Identification(8); Physical Data(1); Spectra(1),4.0,3.0,200,,,,,,"Article; Khalymbadzha; Shestakova; Deev; Rusinov; Chupakhin; Shenkarev; Arseniev; Russian Chemical Bulletin; vol. 62; 2; (2013); p. 521 - 528; Izv. Akad. Nauk, Ser. Khim.; 2; (2013); p. 519 - 526,8;",https://www.reaxys.com/reaxys/secured/hopinto.do?context=C&query=CNR.CNR%3D62376226&database=RX&origin=ReaxysOutput&ln=
,FC1=NNC=N1,507137.0,https://www.reaxys.com/reaxys/secured/hopinto.do?context=S&query=IDE.XRN%3D507137&database=RX&origin=ReaxysOutput&ln=,(1514 of 4000),42297-29-0,"3-Fluor-1,2,4-triazol; 3(5)-Fluor-s-triazol; 3-fluoro-1H-[1,2,4]triazole",C2H2FN3,C2H2FN3,87.0564,heterocyclic,,SOBHMFCHWRGFAU-UHFFFAOYSA-N,,,,Identification(7); Physical Data(1); Spectra(3),1.0,2.0,131 - 132,,,,,,Article; Vilarrasa et al.; Anales de Quimica (1968-1979); vol. 71; (1975); p. 631;; ; Article; Naik et al.; Journal of Organic Chemistry; vol. 38; (1973); p. 4353;,https://www.reaxys.com/reaxys/secured/hopinto.do?context=C&query=CNR.CNR%3D2616770&database=RX&origin=ReaxysOutput&ln=
,NC(=NF)C#N,1903356.0,https://www.reaxys.com/reaxys/secured/hopinto.do?context=S&query=IDE.XRN%3D1903356&database=RX&origin=ReaxysOutput&ln=,(1515 of 4000),13502-03-9,1-Cyan-N'-fluor-amidin,H2NC(NF)CN,C2H2FN3,87.0564,acyclic,,RZBJONRNUKMLGU-UHFFFAOYSA-N,,,,Identification(6); Physical Data(4); Spectra(6),3.0,3.0,107 - 108,,,,,,"Article; Logothetis,A.L.; Sausen,G.N.; Journal of Organic Chemistry; vol. 31; (1966); p. 3689 - 3693;; ; Patent; DUPONT DE NEMOURS INC; US3215709; (1962); A; Chem.Abstr.; vol. 65; 13556d; (1966); Chem.Abstr.; vol. 65; 13556d; (1966);; ; Article; Gmelin Handbuch der Anorganischen Chemie; vol. F: PerFHalOrg.8; 4, page 152 - 228; (from Gmelin)",https://www.reaxys.com/reaxys/secured/hopinto.do?context=C&query=CNR.CNR%3D180829&database=RX&origin=ReaxysOutput&ln=
,N\C(=N\F)C#N,6581345.0,https://www.reaxys.com/reaxys/secured/hopinto.do?context=S&query=IDE.XRN%3D6581345&database=RX&origin=ReaxysOutput&ln=,(1516 of 4000),,1-Cyan-N'-fluor-amidin,C2H2FN3,C2H2FN3,87.0564,acyclic,,RZBJONRNUKMLGU-UHFFFAOYSA-N,,,,Identification(6); Physical Data(1); Spectra(4),1.0,1.0,107 - 108,benzene; hexane,,,,,"Article; Logothetis,A.L.; Sausen,G.N.; Journal of Organic Chemistry; vol. 31; (1966); p. 3689 - 3693;",https://www.reaxys.com/reaxys/secured/hopinto.do?context=C&query=CNR.CNR%3D180829&database=RX&origin=ReaxysOutput&ln=
,[2H]C([2H])([2H])C1=NN=NN1,1101720.0,https://www.reaxys.com/reaxys/secured/hopinto.do?context=S&query=IDE.XRN%3D1101720&database=RX&origin=ReaxysOutput&ln=,(1517 of 4000),26087-52-5,5-methyl-<(2)H3>tetrazole; 5-Trideuteromethyltetrazol; 5-trideuteriomethyl-1(2)H-tetrazole,C2HD3N4,C2H4N4,87.0567,heterocyclic,,XZGLNCKSNVGDNX-FIBGUPNXSA-N,,,,Identification(8); Physical Data(1); Spectra(2),1.0,2.0,148,,,,,,"Article; Razynska, Anna; Tempczyk, Anna; Malinski, Edmund; Szafranek, Janusz; Grzonka, Zbigniew; Hermann, Peter; Journal of the Chemical Society. Perkin transactions II; (1983); p. 379 - 384;",https://www.reaxys.com/reaxys/secured/hopinto.do?context=C&query=CNR.CNR%3D5603608&database=RX&origin=ReaxysOutput&ln=
,CP(C)C#N,1098417.0,https://www.reaxys.com/reaxys/secured/hopinto.do?context=S&query=IDE.XRN%3D1098417&database=RX&origin=ReaxysOutput&ln=,(1518 of 4000),31641-57-3,dimethylcyanophosphine; Dimethylcyanophosphin,C3H6NP,C3H6NP,87.0611,acyclic,,SWRGYFFSSDOEJV-UHFFFAOYSA-N,,,,Identification(10); Physical Data(7); Spectra(12),2.0,11.0,0,,,,,,"Article; Chervin, I. I.; Isobaev, M. D.; El'natanov, Yu. I.; Shikhaliev, Sh. M.; Bystrov, L. V.; Kostyanovskii, R. G.; Bulletin of the Academy of Sciences of the USSR Division of Chemical Science; vol. 30; 8; (1981); p. 1438 - 1445; Izvestiya Akademii Nauk SSSR, Seriya Khimicheskaya; vol. 30; 8; (1981); p. 1769 - 1776;",https://www.reaxys.com/reaxys/secured/hopinto.do?context=C&query=CNR.CNR%3D5740382&database=RX&origin=ReaxysOutput&ln=
,[H]P(CC)C#N,1698783.0,https://www.reaxys.com/reaxys/secured/hopinto.do?context=S&query=IDE.XRN%3D1698783&database=RX&origin=ReaxysOutput&ln=,(1519 of 4000),87290-56-0,ethyl-cyano-phosphine; Aethylcyanphosphid; Aethyl-cyan-phosphin,PH(C2H5)CN,C3H6NP,87.0611,acyclic,,VOAFSORYPKQZNU-UHFFFAOYSA-N,,,,Identification(5); Physical Data(2),2.0,3.0,49 - 50,diethyl ether,,,,,Article; Darmstaedter; Henninger; Chemische Berichte; vol. 3; (1870); p. 179;,https://www.reaxys.com/reaxys/secured/hopinto.do?context=C&query=CNR.CNR%3D1218011&database=RX&origin=ReaxysOutput&ln=
,O=C1NCCO1,106251.0,https://www.reaxys.com/reaxys/secured/hopinto.do?context=S&query=IDE.XRN%3D106251&database=RX&origin=ReaxysOutput&ln=,(1520 of 4000),497-25-6,dimethylenecyclourethane; 2-Oxazolidinone,C3H4NHO2,C3H5NO2,87.0782,heterocyclic,,IZXIZTKNFFYFOF-UHFFFAOYSA-N,,,,Identification(611); Physical Data(83); Spectra(91); Bioactivity(88),1943.0,1643.0,88 - 89,,supporting information,,,,"Article; Song, Hai-Xia; Han, Zhou-Zhou; Zhang, Cheng-Pan; Chemistry - A European Journal; vol. 25; 46; (2019); p. 10907 - 10912;",https://www.reaxys.com/reaxys/secured/hopinto.do?context=C&query=CNR.CNR%3D77384190&database=RX&origin=ReaxysOutput&ln=
,O=C1CCON1,106253.0,https://www.reaxys.com/reaxys/secured/hopinto.do?context=S&query=IDE.XRN%3D106253&database=RX&origin=ReaxysOutput&ln=,(1521 of 4000),1192-07-0,"isoxazolidin-3-one; Isoxazolidon-3; 3-isoxazolidinone; 1,2-oxazolidin-3-one",C3H5NO2,C3H5NO2,87.0782,heterocyclic,,QXDOFVVNXBGLKK-UHFFFAOYSA-N,,,,Identification(61); Physical Data(15); Spectra(12),56.0,76.0,71 - 71.5,ethyl acetate; petroleum ether,,,,,"Article; Dallanoce, Clelia; Conti, Paola; De Amici, Marco; De Micheli, Carlo; Barocelli, Elisabetta; Chiavarini, Milena; Ballabeni, Vigilio; Bertoni, Simona; Impicciatore, Mariannina; Bioorganic and Medicinal Chemistry; vol. 7; 8; (1999); p. 1539 - 1547;",https://www.reaxys.com/reaxys/secured/hopinto.do?context=C&query=CNR.CNR%3D6210805&database=RX&origin=ReaxysOutput&ln=
,OC(=O)C1CN1,471365.0,https://www.reaxys.com/reaxys/secured/hopinto.do?context=S&query=IDE.XRN%3D471365&database=RX&origin=ReaxysOutput&ln=,(1522 of 4000),54080-06-7,2-Aziridin-carbonsaeure; Ethylenimin-carbonsaeure-2; aziridine-2-carboxylic acid; 2-Aziridinecarboxylic acid,C3H5NO2,C3H5NO2,87.0782,heterocyclic,,WBGBOXYJYPVLQJ-UHFFFAOYSA-N,,,,Identification(23); Physical Data(2),2.0,18.0,155 - 157,,,,,,"Article; Kyburz et al.; Helvetica Chimica Acta; vol. 49; (1966); p. 359,367;",https://www.reaxys.com/reaxys/secured/hopinto.do?context=C&query=CNR.CNR%3D2500021&database=RX&origin=ReaxysOutput&ln=
,CC(=O)C(N)=O,506209.0,https://www.reaxys.com/reaxys/secured/hopinto.do?context=S&query=IDE.XRN%3D506209&database=RX&origin=ReaxysOutput&ln=,(1523 of 4000),631-66-3,"pyruvamide; Brenztraubensaeureamid; Pyruvamid; 2-oxo-propanamide; 1-(1,2-dioxopropyl)-cycloamine",C3H5NO2,C3H5NO2,87.0782,acyclic,,FPOLWERNILTNDK-UHFFFAOYSA-N,,,,Identification(43); Physical Data(10); Spectra(15),52.0,70.0,106 - 107,,,,,,Article; Wang; Mallat; Baiker; Tetrahedron Asymmetry; vol. 8; 13; (1997); p. 2133 - 2140;,https://www.reaxys.com/reaxys/secured/hopinto.do?context=C&query=CNR.CNR%3D6064216&database=RX&origin=ReaxysOutput&ln=
,CC(=O)C=NO,635802.0,https://www.reaxys.com/reaxys/secured/hopinto.do?context=S&query=IDE.XRN%3D635802&database=RX&origin=ReaxysOutput&ln=,(1524 of 4000),306-44-5,propanone 1-oxime,CH3C(O)CHNOH,C3H5NO2,87.0782,acyclic,,OVGLVOLWBBGQHS-UHFFFAOYSA-N,,,,Identification(19); Physical Data(38); Spectra(14); Bioactivity(16),222.0,193.0,58,,,,,,"Article; Butler, Anthony R.; Calsy, Adrianne M.; Glidewell, Christopher; Journal of Organometallic Chemistry; vol. 341; (1988); p. 439 - 446;",https://www.reaxys.com/reaxys/secured/hopinto.do?context=C&query=CNR.CNR%3D5917889&database=RX&origin=ReaxysOutput&ln=
,OC1CC=NO1,1098719.0,https://www.reaxys.com/reaxys/secured/hopinto.do?context=S&query=IDE.XRN%3D1098719&database=RX&origin=ReaxysOutput&ln=,(1525 of 4000),,"4,5-dihydro-isoxazol-5-ol; malonaldehyde (Z)-monooxime cyclo-tautomer",C3H5NO2,C3H5NO2,87.0782,acyclic,,LBRWHLLRZPHKMA-UHFFFAOYSA-N,,,,Identification(9); Physical Data(1); Spectra(2),1.0,5.0,29,,,,,,"Article; Escale,R. et al.; Bulletin de la Societe Chimique de France; (1974); p. 725 - 733;",https://www.reaxys.com/reaxys/secured/hopinto.do?context=C&query=CNR.CNR%3D122335&database=RX&origin=ReaxysOutput&ln=
,O=C1COCN1,1098866.0,https://www.reaxys.com/reaxys/secured/hopinto.do?context=S&query=IDE.XRN%3D1098866&database=RX&origin=ReaxysOutput&ln=,(1526 of 4000),5840-83-5,"1,3-Oxazolidin-5-on; oxazolidin-4-one; oxazolidone-4; 4-oxazolidinone",C3H5NO2,C3H5NO2,87.0782,heterocyclic,,PXHFLWCSJYTAFU-UHFFFAOYSA-N,,,,Identification(26); Physical Data(1); Spectra(1),2.0,22.0,81 - 83,,,,,,"Article; Kricheldorf; Makromolekulare Chemie; vol. 176; (1975); p. 57,75,76;",https://www.reaxys.com/reaxys/secured/hopinto.do?context=C&query=CNR.CNR%3D3032462&database=RX&origin=ReaxysOutput&ln=
,NC(=O)C1CO1,1280744.0,https://www.reaxys.com/reaxys/secured/hopinto.do?context=S&query=IDE.XRN%3D1280744&database=RX&origin=ReaxysOutput&ln=,(1527 of 4000),5694-00-8,glycidamide,C3H5NO2,C3H5NO2,87.0782,heterocyclic,,FMAZQSYXRGRESX-UHFFFAOYSA-N,,,,Identification(37); Physical Data(4); Spectra(10); Bioactivity(50),19.0,61.0,32 - 34,acetone,,,,,Article; Payne; Williams; Journal of Organic Chemistry; vol. 26; (1961); p. 651;,https://www.reaxys.com/reaxys/secured/hopinto.do?context=C&query=CNR.CNR%3D3203791&database=RX&origin=ReaxysOutput&ln=
,OC1CNC1=O,1446243.0,https://www.reaxys.com/reaxys/secured/hopinto.do?context=S&query=IDE.XRN%3D1446243&database=RX&origin=ReaxysOutput&ln=,(1528 of 4000),58521-62-3,3-hydroxy-azetidin-2-one,C3H5NO2,C3H5NO2,87.0782,heterocyclic,,BYBSZKOGUBQJEE-UHFFFAOYSA-N,,,,Identification(7); Physical Data(1); Spectra(1),1.0,2.0,68 - 69,,,,,,"Article; Birkofer,L.; Schramm,J.; Justus Liebigs Annalen der Chemie; (1975); p. 2195 - 2200;",https://www.reaxys.com/reaxys/secured/hopinto.do?context=C&query=CNR.CNR%3D76177&database=RX&origin=ReaxysOutput&ln=
,CC(C=O)=NO,1699409.0,https://www.reaxys.com/reaxys/secured/hopinto.do?context=S&query=IDE.XRN%3D1699409&database=RX&origin=ReaxysOutput&ln=,(1529 of 4000),52764-58-6,2-hydroxyiminopropanal; pyruvaldehyde-2-oxime; Pyruvaldehyd-2-oxim,C3H5NO2,C3H5NO2,87.0782,acyclic,,PDQYOPNIPOWAFS-UHFFFAOYSA-N,,,,Identification(6); Physical Data(3); Spectra(4),5.0,4.0,67,petroleum ether,,,,,"Article; Newbold et al.; Journal of the Chemical Society; (1951); p. 2679,2681;",https://www.reaxys.com/reaxys/secured/hopinto.do?context=C&query=CNR.CNR%3D671535&database=RX&origin=ReaxysOutput&ln=
,CC(=O)\C=N\O,1720285.0,https://www.reaxys.com/reaxys/secured/hopinto.do?context=S&query=IDE.XRN%3D1720285&database=RX&origin=ReaxysOutput&ln=,(1530 of 4000),17280-41-0,anti-pyruvic aldehyde 1-oxime; '2-oxopropanal 1-oxime,C3H5NO2,C3H5NO2,87.0782,acyclic,,OVGLVOLWBBGQHS-DUXPYHPUSA-N,,,,Identification(38); Physical Data(9); Spectra(8); Bioactivity(5),42.0,75.0,69,,,,,,"Article; Armand,J.; Guette,J.-P.; Bulletin de la Societe Chimique de France; (1969); p. 2894 - 2900;",https://www.reaxys.com/reaxys/secured/hopinto.do?context=C&query=CNR.CNR%3D119783&database=RX&origin=ReaxysOutput&ln=
,CN(C=O)C=O,1740167.0,https://www.reaxys.com/reaxys/secured/hopinto.do?context=S&query=IDE.XRN%3D1740167&database=RX&origin=ReaxysOutput&ln=,(1531 of 4000),18197-25-6,N-Methyl-diformamid; N-formyl-N-methylformamide,C3H5NO2,C3H5NO2,87.0782,acyclic,,QWOKUXNYCLUKMH-UHFFFAOYSA-N,,,,Identification(26); Physical Data(10); Spectra(11),25.0,31.0,14,,,,,,Article; Lee; Kumler; Journal of the American Chemical Society; vol. 84; (1962); p. 571;,https://www.reaxys.com/reaxys/secured/hopinto.do?context=C&query=CNR.CNR%3D3873084&database=RX&origin=ReaxysOutput&ln=
,ONC(=O)C=C,1740562.0,https://www.reaxys.com/reaxys/secured/hopinto.do?context=S&query=IDE.XRN%3D1740562&database=RX&origin=ReaxysOutput&ln=,(1532 of 4000),1609-28-5,Acrylhydroxamsaeure; acrylohydroxamic acid; Acrylohydroxamsaeure; N-hydroxy acrylamide; propenohydroxamic acid,C3H5NO2,C3H5NO2,87.0782,acyclic,,HQVFKSDWNYVAQD-UHFFFAOYSA-N,,,,Identification(20); Physical Data(10); Spectra(6),7.0,17.0,83 - 84,hexane,,,,,"Article; Hamper, Bruce C.; Sullivan, Brendan T.; Rath, Nigam P.; Spilling, Christopher D.; Synthesis; vol. 49; 24; (2017); p. 5335 - 5338;",https://www.reaxys.com/reaxys/secured/hopinto.do?context=C&query=CNR.CNR%3D72766547&database=RX&origin=ReaxysOutput&ln=
,CC(=O)NC=O,1741722.0,https://www.reaxys.com/reaxys/secured/hopinto.do?context=S&query=IDE.XRN%3D1741722&database=RX&origin=ReaxysOutput&ln=,(1533 of 4000),21163-79-1,N-formylacetamide; N-Formyl-acetamid,C3H5NO2,C3H5NO2,87.0782,acyclic,,MRJJQAVHEGLQJJ-UHFFFAOYSA-N,,,,Identification(21); Physical Data(6); Spectra(9); Bioactivity(3),18.0,23.0,70,,,,,,"Article; Kantlehner,W. et al.; Justus Liebigs Annalen der Chemie; (1978); p. 512 - 527;",https://www.reaxys.com/reaxys/secured/hopinto.do?context=C&query=CNR.CNR%3D76647&database=RX&origin=ReaxysOutput&ln=
,CC(=O)CN=O,1849346.0,https://www.reaxys.com/reaxys/secured/hopinto.do?context=S&query=IDE.XRN%3D1849346&database=RX&origin=ReaxysOutput&ln=,(1534 of 4000),44396-45-4,1-nitroso-propan-2-one,C3H5NO2,C3H5NO2,87.0782,acyclic,,XIOSHRWCAJCXKL-UHFFFAOYSA-N,,,,Identification(6); Physical Data(4),3.0,5.0,66 - 68,,,,,,"Article; Armand,J. et al.; Bulletin de la Societe Chimique de France; (1968); p. 4585 - 4594;",https://www.reaxys.com/reaxys/secured/hopinto.do?context=C&query=CNR.CNR%3D119353&database=RX&origin=ReaxysOutput&ln=
,NC(=O)OC=C,1921122.0,https://www.reaxys.com/reaxys/secured/hopinto.do?context=S&query=IDE.XRN%3D1921122&database=RX&origin=ReaxysOutput&ln=,(1535 of 4000),15805-73-9,vinyl carbamate,C3H5NO2,C3H5NO2,87.0782,acyclic,,LVLANIHJQRZTPY-UHFFFAOYSA-N,,,,Identification(105); Physical Data(3); Bioactivity(14),11.0,115.0,54.5 - 56.5,,,,,,Article; Olofson; Yamamoto; Wancowicz; Tetrahedron Letters; vol. No.18; (1977); p. 1563 - 1566;,https://www.reaxys.com/reaxys/secured/hopinto.do?context=C&query=CNR.CNR%3D225960&database=RX&origin=ReaxysOutput&ln=
,NC=CC(O)=O,2233299.0,https://www.reaxys.com/reaxys/secured/hopinto.do?context=S&query=IDE.XRN%3D2233299&database=RX&origin=ReaxysOutput&ln=,(1536 of 4000),40235-86-7,3-aminoacrylate; β-Aminoacrylsaeure,C3H5NO2,C3H5NO2,87.0782,acyclic,,YTLYLLTVENPWFT-UHFFFAOYSA-N,,,,Identification(10); Physical Data(1); Bioactivity(1),1.0,6.0,175,,,,,,"Article; Arbuzov,B.A. et al.; Bulletin of the Academy of Sciences of the USSR Division of Chemical Science; (1970); p. 1479 - 1482; Izvestiya Akademii Nauk SSSR, Seriya Khimicheskaya; (1970); p. 1570 - 1574;",https://www.reaxys.com/reaxys/secured/hopinto.do?context=C&query=CNR.CNR%3D235130&database=RX&origin=ReaxysOutput&ln=
,[H]N([H])[H].OC(=O)C#C,3701442.0,https://www.reaxys.com/reaxys/secured/hopinto.do?context=S&query=IDE.XRN%3D3701442&database=RX&origin=ReaxysOutput&ln=,(1537 of 4000),4567-87-7,propiolic acid ; ammonium compound; Propiolsaeure; Ammonium-Verbindung,C3H2O2*H3N,C3H2O2*H3N,87.0782,acyclic,,PCQYZBBQCRZHDT-UHFFFAOYSA-N,,,,Identification(5); Physical Data(2),,1.0,135,,,Decomp.,,,Article; Straus; Voss; Chemische Berichte; vol. 59; (1926); p. 1689;,https://www.reaxys.com/reaxys/secured/hopinto.do?context=C&query=CNR.CNR%3D1136442&database=RX&origin=ReaxysOutput&ln=
,ON1CCC1=O,5918287.0,https://www.reaxys.com/reaxys/secured/hopinto.do?context=S&query=IDE.XRN%3D5918287&database=RX&origin=ReaxysOutput&ln=,(1538 of 4000),104746-28-3,1-hydroxy-2-azetidinone,C3H5NO2,C3H5NO2,87.0782,heterocyclic,,WPVIUZQMFSKPMN-UHFFFAOYSA-N,,,,Identification(6); Physical Data(1); Spectra(3),1.0,1.0,73 - 74,CHCl3; petroleum ether,,,,,"Article; Elburg, Paulus A. van; Reinhoudt, David N.; Heterocycles; vol. 26; 2; (1987); p. 437 - 445;",https://www.reaxys.com/reaxys/secured/hopinto.do?context=C&query=CNR.CNR%3D5746542&database=RX&origin=ReaxysOutput&ln=