Structure: Image,SMILES,Substance Identification: Reaxys Registry Number,Links to Reaxys,Data Count,CAS Registry Number,Chemical Name,Linear Structure Formula,Molecular Formula,Molecular Weight,Type of Substance,Type and Modification,InChI Key,Composition: Comp. Name,Composition: Comp. Conc.,Composition: Comp. Attrib.,Field Availability,Number of Reactions,Number of References,Melting Point: Melting Point [C],Solvent (Melting Point),Location,Comment (Melting Point),Crystallizes With,Amount (Melting Point) [mol],References,Links to Reaxys.1
,C#CN=N#N,22807708.0,https://www.reaxys.com/reaxys/secured/hopinto.do?context=S&query=IDE.XRN%3D22807708&database=RX&origin=ReaxysOutput&ln=,(450 of 4000),749251-98-7,azidoacetylene; ethynyl azide,C2HN3,C2HN3,67.05,,,NDINZPFMLHEHQX-UHFFFAOYSA-N,,,,Identification(17); Physical Data(1); Spectra(11),11.0,13.0,-69.5,,,,,,"Article; Zeng, Xiaoqing; Beckers, Helmut; Seifert, Jennifer; Banert, Klaus; European Journal of Organic Chemistry; vol. 2014; 19; (2014); p. 4077 - 4082;",https://www.reaxys.com/reaxys/secured/hopinto.do?context=C&query=CNR.CNR%3D63816405&database=RX&origin=ReaxysOutput&ln=
,N1C=CC=C1,1159.0,https://www.reaxys.com/reaxys/secured/hopinto.do?context=S&query=IDE.XRN%3D1159&database=RX&origin=ReaxysOutput&ln=,(451 of 4000),109-97-7,pyrrole,HN(C4H4),C4H5N,67.0904,heterocyclic,,KAESVJOAVNADME-UHFFFAOYSA-N,,,,Identification(19589); Physical Data(729); Spectra(325); Bioactivity(1383),11034.0,27138.0,56 - 58,,supporting information,,,,"Article; McKeever, Caitriona; Kaiser, Marcel; Rozas, Isabel; Journal of Medicinal Chemistry; vol. 56; 3; (2013); p. 700 - 711;",https://www.reaxys.com/reaxys/secured/hopinto.do?context=C&query=CNR.CNR%3D35466778&database=RX&origin=ReaxysOutput&ln=
,C=CCC#N,605352.0,https://www.reaxys.com/reaxys/secured/hopinto.do?context=S&query=IDE.XRN%3D605352&database=RX&origin=ReaxysOutput&ln=,(452 of 4000),109-75-1,Allyl cyanide; but-3-enenitrile,H2CCHCH2CN,C4H5N,67.0904,acyclic,,SJNALLRHIVGIBI-UHFFFAOYSA-N,,,,Identification(346); Physical Data(93); Spectra(46); Bioactivity(69),925.0,1017.0,-86.8,,,,,,"Article; Lafortune; Bulletin des Societes Chimiques Belges; vol. 32; (1923); p. 315,316; Chemisches Zentralblatt; vol. 95; I; (1924); p. 1660;",https://www.reaxys.com/reaxys/secured/hopinto.do?context=C&query=CNR.CNR%3D1916400&database=RX&origin=ReaxysOutput&ln=
,N#CC1CC1,635790.0,https://www.reaxys.com/reaxys/secured/hopinto.do?context=S&query=IDE.XRN%3D635790&database=RX&origin=ReaxysOutput&ln=,(453 of 4000),5500-21-0,cyclopropropanecarbonitrile; cyclopropyl cyanide,(CH2)2CHCN,C4H5N,67.0904,isocyclic,,AUQDITHEDVOTCU-UHFFFAOYSA-N,,,,Identification(171); Physical Data(77); Spectra(48); Bioactivity(38),534.0,690.0,-25,,,,,,"Article; Kiers, C. Th.; Boer, J. S. A. M. de; Heijdenrijk, D.; Stam, C. H.; Schenk, H.; Recueil des Travaux Chimiques des Pays-Bas; vol. 104; 1; (1985); p. 7 - 9;",https://www.reaxys.com/reaxys/secured/hopinto.do?context=C&query=CNR.CNR%3D5819961&database=RX&origin=ReaxysOutput&ln=
,CC(=C)C#N,773708.0,https://www.reaxys.com/reaxys/secured/hopinto.do?context=S&query=IDE.XRN%3D773708&database=RX&origin=ReaxysOutput&ln=,(454 of 4000),126-98-7,methacrylonitrile; methacryl nitrile,(CH3)(NC)CCH2,C4H5N,67.0904,acyclic,,GYCMBHHDWRMZGG-UHFFFAOYSA-N,,,,Identification(418); Physical Data(85); Spectra(51); Bioactivity(81),1159.0,1296.0,90 - 92,,,,,,Article; Kulieva; Mamedov; Azizov; Alieva; Russian Journal of Applied Chemistry; vol. 83; 7; (2010); p. 1336 - 1338;,https://www.reaxys.com/reaxys/secured/hopinto.do?context=C&query=CNR.CNR%3D8958609&database=RX&origin=ReaxysOutput&ln=
,[H]C(C)=C([H])C#N,1098388.0,https://www.reaxys.com/reaxys/secured/hopinto.do?context=S&query=IDE.XRN%3D1098388&database=RX&origin=ReaxysOutput&ln=,(455 of 4000),4786-20-3,but-2-enenitrile; crotononitrile; 2-butenenitrile; crotonitrile,NCCHCHCH3,C4H5N,67.0904,acyclic,,NKKMVIVFRUYPLQ-UHFFFAOYSA-N,,,,Identification(70); Physical Data(78); Spectra(27); Bioactivity(27),510.0,431.0,-51.5,,,α-crotonic acid nitrile (trans-form),,,Article; Timmermans; Bulletin des Societes Chimiques Belges; vol. 36; (1927); p. 507; Chemisches Zentralblatt; vol. 99; I; (1928); p. 27;,https://www.reaxys.com/reaxys/secured/hopinto.do?context=C&query=CNR.CNR%3D1138124&database=RX&origin=ReaxysOutput&ln=
,CC[Be]CC,3902987.0,https://www.reaxys.com/reaxys/secured/hopinto.do?context=S&query=IDE.XRN%3D3902987&database=RX&origin=ReaxysOutput&ln=,(456 of 4000),542-63-2,diethylberyllium; beryllium diethyl,Be(C2H5)2,C4H10Be,67.1356,acyclic,,MYNXPVWCASBJRE-UHFFFAOYSA-N,,,,Identification(49); Physical Data(29); Spectra(3),29.0,51.0,-80,,,,,,"Article; Goubeau; Rodewald; Zeitschrift fur Anorganische und Allgemeine Chemie; vol. 258; (1949); p. 162,168;",https://www.reaxys.com/reaxys/secured/hopinto.do?context=C&query=CNR.CNR%3D1252030&database=RX&origin=ReaxysOutput&ln=
,[O][Cl]=O,3535478.0,https://www.reaxys.com/reaxys/secured/hopinto.do?context=S&query=IDE.XRN%3D3535478&database=RX&origin=ReaxysOutput&ln=,(457 of 4000),10049-04-4; 25052-55-5,chlorine dioxide,ClO2,ClO2,67.4518,Isotope or isotope containing compound,,OSVXSBDYLRYLIG-UHFFFAOYSA-N,,,,Identification(3354); Physical Data(252); Spectra(139); Bioactivity(281),541.0,4881.0,-59,,,,,,"Article; Faraday; Annales de Chimie et de Physique; vol. 15; (1845); p. 273 - 273;; ; Article; Faraday; Annalen der Physik; vol. 2; (1848); p. 211 - 211;; ; Article; Faraday; Philosophical Transactions of the Royal Society of London; Philosophical Transactions of the Royal Society of London; (1845); p. 166 - 166;; ; Article; King; Partington; Journal of the Chemical Society; Journal of the Chemical Society; (1926); p. 928 - 928;; ; Article; King; Partington; Journal of the Chemical Society; Journal of the Chemical Society; (1926); p. 929 - 929;; ; Article; Gmelin Handbuch der Anorganischen Chemie; vol. Cl: MVol.; 87, page 238 - 240;; ; Article; Schumacher, H.-J.; Anales des la Asociacion Quimica Argentina; vol. 38; (1950); p. 209 - 224;; ; Article; Gmelin Handbuch der Anorganischen Chemie; vol. Cl: SVol.B2; 13, page 341 - 343;; ; Article; Brewer, L.; vol. 19; (1950); p. 193 - 275; (from Gmelin)",https://www.reaxys.com/reaxys/secured/hopinto.do?context=C&query=CNR.CNR%3D7413030&database=RX&origin=ReaxysOutput&ln=
,Cl[H].CN,3588822.0,https://www.reaxys.com/reaxys/secured/hopinto.do?context=S&query=IDE.XRN%3D3588822&database=RX&origin=ReaxysOutput&ln=,(459 of 4000),593-51-1,methylamine hydrochloride; methanamine hydrochloride; methylammonium chloride; N-methylamine hydrochloride; methanaminium chloride; methylammonium hydrochloride; methylamine hydrochloride salt; monomethyl amine hydrochloride; methylamino hydrochloride; methyl amine HCl; MeNH2-HCl; methylamine hydrochloric acid; methylamine hydrogen chloride; N-methylammonium chloride; methylamine HCl salt; methyl amine; methanamine monohydrochloride; MACl,ClH*CH5N,CH6N*Cl,67.5183,acyclic,,NQMRYBIKMRVZLB-UHFFFAOYSA-N,,,,Identification(1049); Physical Data(128); Spectra(39); Bioactivity(271),5774.0,5170.0,235 - 237,propan-1-ol,supporting information,,,,"Article; Jackson, Douglas M.; Ashley, Robert L.; Brownfield, Callan B.; Morrison, Daniel R.; Morrison, Richard W.; Synthetic Communications; vol. 45; 23; (2015); p. 2691 - 2700;",https://www.reaxys.com/reaxys/secured/hopinto.do?context=C&query=CNR.CNR%3D67706612&database=RX&origin=ReaxysOutput&ln=
,[Na+].[O-]C=O,3595134.0,https://www.reaxys.com/reaxys/secured/hopinto.do?context=S&query=IDE.XRN%3D3595134&database=RX&origin=ReaxysOutput&ln=,(461 of 4000),141-53-7,sodium formate; Na formate; sodium methylate; sodium formiate; HCOONa; sodium methanoate; anhydrous sodium formate,HCOO(1-)*Na(1+) = HCOONa,CHNaO2,68.0075,acyclic,,HLBBKKJFGFRGMU-UHFFFAOYSA-M,,,,Identification(4625); Physical Data(423); Spectra(96); Bioactivity(350),1574.0,6366.0,252 - 253,,Paragraph 0006; 0009; 0011,,,,Patent; TAIZHOU UNIVERSITY; CN102936193; (2016); B;,https://www.reaxys.com/reaxys/secured/hopinto.do?context=C&query=CNR.CNR%3D70611640&database=RX&origin=ReaxysOutput&ln=
,O=C=C=C=O,1697986.0,https://www.reaxys.com/reaxys/secured/hopinto.do?context=S&query=IDE.XRN%3D1697986&database=RX&origin=ReaxysOutput&ln=,(462 of 4000),504-64-3,carbon suboxide,(C3O2),C3O2,68.0318,acyclic; Isotope or isotope containing compound,,GNEVIACKFGQMHB-UHFFFAOYSA-N,,,,Identification(133); Physical Data(229); Spectra(70); Bioactivity(33),686.0,632.0,-112.5,,,,,,"Article; Ellern, Arkady; Drews, Thomas; Seppelt, Konrad; Zeitschrift fur Anorganische und Allgemeine Chemie; vol. 627; 1; (2001); p. 73 - 76; (from Gmelin)",https://www.reaxys.com/reaxys/secured/hopinto.do?context=C&query=CNR.CNR%3D8016010&database=RX&origin=ReaxysOutput&ln=
,[2H]C([2H])([2H])N(C([2H])([2H])[2H])C([2H])([2H])[2H],1904399.0,https://www.reaxys.com/reaxys/secured/hopinto.do?context=S&query=IDE.XRN%3D1904399&database=RX&origin=ReaxysOutput&ln=,(463 of 4000),13960-80-0,trimethylamine-d9; D9-trimethylamine; [d9]-TMA,N(C(2)H3)3,C3H9N,68.0397,acyclic,,GETQZCLCWQTVFV-GQALSZNTSA-N,,,,Identification(31); Physical Data(22); Spectra(21); Bioactivity(2),22.0,58.0,-114.9,,,,,,Article; Tanaka et al.; Journal of Organic Chemistry; vol. 31; (1966); p. 3431;,https://www.reaxys.com/reaxys/secured/hopinto.do?context=C&query=CNR.CNR%3D3926572&database=RX&origin=ReaxysOutput&ln=
,[Na+].CC[O-],3593646.0,https://www.reaxys.com/reaxys/secured/hopinto.do?context=S&query=IDE.XRN%3D3593646&database=RX&origin=ReaxysOutput&ln=,(464 of 4000),141-52-6,sodium ethanolate; sodium ethylate; NaOEt; EtONa; sodium ethoxide; ethoxysodium; potassium etoxide; sodium methylate,C2H5O(1-)*Na(1+)=NaOC2H5,C2H5NaO,68.0509,acyclic,,QDRKDTQENPPHOJ-UHFFFAOYSA-N,,,,Identification(1590); Physical Data(44); Spectra(10); Bioactivity(1),13983.0,11098.0,247 - 248,,,,,,Patent; MEDIOLANUM FARMACEUTICI SPA; US4923859; (1990); A;,https://www.reaxys.com/reaxys/secured/hopinto.do?context=C&query=CNR.CNR%3D110785&database=RX&origin=ReaxysOutput&ln=
,O1C=CC=C1,103221.0,https://www.reaxys.com/reaxys/secured/hopinto.do?context=S&query=IDE.XRN%3D103221&database=RX&origin=ReaxysOutput&ln=,(465 of 4000),110-00-9,furan,C4OH4,C4H4O,68.0752,heterocyclic,,YLQBMQCUIZJEEH-UHFFFAOYSA-N,,,,Identification(11495); Physical Data(403); Spectra(156); Bioactivity(840),6128.0,16103.0,-85.6,,,,,,"Article; Dolliver et al.; Journal of the American Chemical Society; vol. 60; (1938); p. 441;; ; Article; Timmermans; Hennaut-Roland; Journal de Chimie Physique et de Physico-Chimie Biologique; vol. 56; (1959); p. 984,1004;; ; Article; Haas, Alois; Klare, Christiane; Kraechter, Hans-Udo; Journal of Heterocyclic Chemistry; vol. 22; (1985); p. 1631 - 1633;",https://www.reaxys.com/reaxys/secured/hopinto.do?context=C&query=CNR.CNR%3D1357686&database=RX&origin=ReaxysOutput&ln=
,CC#CC=O,1734749.0,https://www.reaxys.com/reaxys/secured/hopinto.do?context=S&query=IDE.XRN%3D1734749&database=RX&origin=ReaxysOutput&ln=,(466 of 4000),1119-19-3,but-2-ynal; 2-butynal,C3H3CHO,C4H4O,68.0752,acyclic,,REJPDMLLCDXIOV-UHFFFAOYSA-N,,,,Identification(32); Physical Data(29); Spectra(30),148.0,143.0,-26,,,,,,"Article; Viguier; Comptes Rendus Hebdomadaires des Seances de l'Academie des Sciences; vol. 152; (1911); p. 1492; Annales de Chimie (Cachan, France); vol. &lt;8&gt;28; (1913); p. 494;",https://www.reaxys.com/reaxys/secured/hopinto.do?context=C&query=CNR.CNR%3D1324086&database=RX&origin=ReaxysOutput&ln=
,C=CC=C=O,2036069.0,https://www.reaxys.com/reaxys/secured/hopinto.do?context=S&query=IDE.XRN%3D2036069&database=RX&origin=ReaxysOutput&ln=,(467 of 4000),50888-73-8,vinylketene,C4H4O,C4H4O,68.0752,acyclic,,XGIVOKYSENAIBM-UHFFFAOYSA-N,,,,Identification(74); Physical Data(4); Spectra(15),43.0,82.0,-85,,,,,,"Article; Bjarrov; Zeitschrift fur Naturforschung, Teil A: Astrophysik, Physik und Physikalische Chemie; vol. 34; (1979); p. 1269;",https://www.reaxys.com/reaxys/secured/hopinto.do?context=C&query=CNR.CNR%3D4243390&database=RX&origin=ReaxysOutput&ln=
,N1C=CC=N1,103775.0,https://www.reaxys.com/reaxys/secured/hopinto.do?context=S&query=IDE.XRN%3D103775&database=RX&origin=ReaxysOutput&ln=,(468 of 4000),288-13-1,1H-pyrazol; 1H-Pyrazole; NH-pyrazole; pyrazole; Hpz; pzH,C3H3NHN,C3H4N2,68.0782,heterocyclic,,WTKZEGDFNFYCGP-UHFFFAOYSA-N,,,,Identification(5813); Physical Data(238); Spectra(173); Bioactivity(647),6425.0,9761.0,66.84,,,,,,"Article; Łapiński, Andrzej; Ławniczak, Paweł; Dubis, Alina T.; Gzella, Andrzej; Markiewicz, Karolina H.; Mizera, Adam; Piotrowska, Agata; Zięba, Sylwia; Molecules; vol. 26; 15; (2021);",https://www.reaxys.com/reaxys/secured/hopinto.do?context=C&query=CNR.CNR%3D97728429&database=RX&origin=ReaxysOutput&ln=
,N1C=CN=C1,103853.0,https://www.reaxys.com/reaxys/secured/hopinto.do?context=S&query=IDE.XRN%3D103853&database=RX&origin=ReaxysOutput&ln=,(469 of 4000),288-32-4,1H-imidazole; imidazole; Imidazol; Him,(C3N2H4),C3H4N2,68.0782,heterocyclic,,RAXXELZNTBOGNW-UHFFFAOYSA-N,,,,Identification(18090); Physical Data(777); Spectra(198); Bioactivity(1662),16215.0,29633.0,90 - 91,,Page/Page column 22,,,,Patent; AGILENT TECHNOLOGIES INC; US9297035; (2016); B2;,https://www.reaxys.com/reaxys/secured/hopinto.do?context=C&query=CNR.CNR%3D68716320&database=RX&origin=ReaxysOutput&ln=
,N#CC1CN1,471199.0,https://www.reaxys.com/reaxys/secured/hopinto.do?context=S&query=IDE.XRN%3D471199&database=RX&origin=ReaxysOutput&ln=,(470 of 4000),33898-53-2,2-cyanoaziridine; 2-Cyan-aziridin; aziridine-2-carbonitrile,C2H4N(CN),C3H4N2,68.0782,heterocyclic,,PGZUFTROELAOMP-UHFFFAOYSA-N,,,,Identification(26); Physical Data(10); Spectra(15); Bioactivity(6),111.0,42.0,145 - 146,,,,,,Patent; ROCHE HOLDING AG; AECI LTD; US4267174; (1981); A;,https://www.reaxys.com/reaxys/secured/hopinto.do?context=C&query=CNR.CNR%3D47159&database=RX&origin=ReaxysOutput&ln=
,C=NCC#N,1848155.0,https://www.reaxys.com/reaxys/secured/hopinto.do?context=S&query=IDE.XRN%3D1848155&database=RX&origin=ReaxysOutput&ln=,(471 of 4000),109-82-0,methyleneaminoacetonitrile; Methylenaminoacetonitril; N-Methylenglycinonitril; N-methyleneaminoacetonitrile,CH2NCH2CN,C3H4N2,68.0782,acyclic,,GFZMFCVDDFHSJK-UHFFFAOYSA-N,,,,Identification(28); Physical Data(2); Spectra(7),23.0,56.0,129,,,,,,"Article; Asinger,F. et al.; Monatshefte fur Chemie; vol. 98; (1967); p. 338 - 352;; ; Patent; COMPAGNIE GENERALE DES ETABLISSEMENTS MICHELIN (MICHELIN); FR1391327; (1963); A; Chem.Abstr.; vol. 63; 4392d; (1965); Chem.Abstr.; vol. 63; 4392d; (1965);",https://www.reaxys.com/reaxys/secured/hopinto.do?context=C&query=CNR.CNR%3D14092&database=RX&origin=ReaxysOutput&ln=
,N\C=C/C#N,2408742.0,https://www.reaxys.com/reaxys/secured/hopinto.do?context=S&query=IDE.XRN%3D2408742&database=RX&origin=ReaxysOutput&ln=,(472 of 4000),24532-82-9,(Z)-3-aminoprop-2-enenitrile,C3H4N2,C3H4N2,68.0782,acyclic,,RORTUEWWZUJHTM-UPHRSURJSA-N,,,,Identification(5); Physical Data(4); Spectra(11),8.0,5.0,7 - 7.5,,,,,,"Article; Xiang, Yi-Bin; Drenkard, Susanne; Baumann, Karl; Hickey, Deirdre; Eschenmoser, Albert; Helvetica Chimica Acta; vol. 77; 8; (1994); p. 2209 - 2250;",https://www.reaxys.com/reaxys/secured/hopinto.do?context=C&query=CNR.CNR%3D5943298&database=RX&origin=ReaxysOutput&ln=
,C1CC=CC1,635707.0,https://www.reaxys.com/reaxys/secured/hopinto.do?context=S&query=IDE.XRN%3D635707&database=RX&origin=ReaxysOutput&ln=,(474 of 4000),142-29-0,cyclopentene,C5H8,C5H8,68.1185,isocyclic,,LPIQUOYDBNQMRZ-UHFFFAOYSA-N,,,,Identification(2022); Physical Data(309); Spectra(105); Bioactivity(272),4843.0,5345.0,-133.7,,,,,,"Article; Labruyere-Verhavert; Bulletin des Societes Chimiques Belges; vol. 60; (1951); p. 270,272;; ; Article; Timmermans; Hennaut-Roland; Journal de Chimie Physique et de Physico-Chimie Biologique; vol. 52; (1955); p. 223,228;",https://www.reaxys.com/reaxys/secured/hopinto.do?context=C&query=CNR.CNR%3D1731318&database=RX&origin=ReaxysOutput&ln=
,C1CC11CC1,969157.0,https://www.reaxys.com/reaxys/secured/hopinto.do?context=S&query=IDE.XRN%3D969157&database=RX&origin=ReaxysOutput&ln=,(475 of 4000),157-40-4,spiropentane; spiro[2.2]pentane; Spiropentan,C5H8,C5H8,68.1185,isocyclic,,OGNAOIGAPPSUMG-UHFFFAOYSA-N,,,,Identification(76); Physical Data(52); Spectra(19),43.0,143.0,-115,,,,,,"Article; Boese, Roland; Blaeser, Dieter; Gomann, Klaus; Brinker, Udo H.; Journal of the American Chemical Society; vol. 111; 4; (1989); p. 1501 - 1503;",https://www.reaxys.com/reaxys/secured/hopinto.do?context=C&query=CNR.CNR%3D5749254&database=RX&origin=ReaxysOutput&ln=
,CC(=C)C=C,969158.0,https://www.reaxys.com/reaxys/secured/hopinto.do?context=S&query=IDE.XRN%3D969158&database=RX&origin=ReaxysOutput&ln=,(476 of 4000),78-79-5,"isoprene; 2-methyl-1,3-butadiene; 3-methyl-1,3-butadiene; 2-methylbutadiene; isopren",CH2(CH3)CCHCH2,C5H8,68.1185,acyclic; Isotope or isotope containing compound,,RRHGJUQNOFWUDK-UHFFFAOYSA-N,,,,Identification(9981); Physical Data(401); Spectra(112); Bioactivity(767),9835.0,14601.0,-146,,,,,,"Article; Anton; Marechal; Bulletin de la Societe Chimique de France; (1971); p. 2669,2673;",https://www.reaxys.com/reaxys/secured/hopinto.do?context=C&query=CNR.CNR%3D4005527&database=RX&origin=ReaxysOutput&ln=
,C\C=C/C=C,1523658.0,https://www.reaxys.com/reaxys/secured/hopinto.do?context=S&query=IDE.XRN%3D1523658&database=RX&origin=ReaxysOutput&ln=,(477 of 4000),1574-41-0,Z-piperylene,CH2CHCHCHCH3,C5H8,68.1185,acyclic,,PMJHHCWVYXUKFD-PLNGDYQASA-N,,,,Identification(154); Physical Data(64); Spectra(48); Bioactivity(27),328.0,526.0,-140.8,,,,,,"Article; Messerly; Journal of Chemical and Engineering Data; vol. 15; (1970); p. 227,228,229,230,231,232;",https://www.reaxys.com/reaxys/secured/hopinto.do?context=C&query=CNR.CNR%3D4157508&database=RX&origin=ReaxysOutput&ln=
,C\C=C\C=C,1523659.0,https://www.reaxys.com/reaxys/secured/hopinto.do?context=S&query=IDE.XRN%3D1523659&database=RX&origin=ReaxysOutput&ln=,(478 of 4000),2004-70-8,"1-methylbuta-1,3-diene; trans-penta-1,3-diene; 1,3-pentadiene",CH3CHCHCHCH2,C5H8,68.1185,acyclic,,PMJHHCWVYXUKFD-SNAWJCMRSA-N,,,,Identification(915); Physical Data(84); Spectra(63); Bioactivity(99),1837.0,1978.0,-87.43,,,,,,"Article; Messerly; Journal of Chemical and Engineering Data; vol. 15; (1970); p. 227,228,229,230,231,232;",https://www.reaxys.com/reaxys/secured/hopinto.do?context=C&query=CNR.CNR%3D4157508&database=RX&origin=ReaxysOutput&ln=
,C=CCC=C,1696934.0,https://www.reaxys.com/reaxys/secured/hopinto.do?context=S&query=IDE.XRN%3D1696934&database=RX&origin=ReaxysOutput&ln=,(479 of 4000),591-93-5,"1,4-Pentadiene",H2CCHCH2CHCH2,C5H8,68.1185,acyclic,,QYZLKGVUSQXAMU-UHFFFAOYSA-N,,,,Identification(362); Physical Data(97); Spectra(41); Bioactivity(39),855.0,775.0,-148.24,,,,,,"Article; Messerly; Journal of Chemical and Engineering Data; vol. 15; (1970); p. 227,228,229,230,231,232;",https://www.reaxys.com/reaxys/secured/hopinto.do?context=C&query=CNR.CNR%3D4157508&database=RX&origin=ReaxysOutput&ln=
,CCC#CC,1696938.0,https://www.reaxys.com/reaxys/secured/hopinto.do?context=S&query=IDE.XRN%3D1696938&database=RX&origin=ReaxysOutput&ln=,(480 of 4000),627-21-4,2-Pentyne,C2H5C2CH3,C5H8,68.1185,acyclic,,NKTDTMONXHODTI-UHFFFAOYSA-N,,,,Identification(119); Physical Data(62); Spectra(33),280.0,374.0,-109.45,,,,,,"Article; Pomerantz et al.; Journal of Research of the National Bureau of Standards (United States); vol. 52; (1954); p. 59,60;",https://www.reaxys.com/reaxys/secured/hopinto.do?context=C&query=CNR.CNR%3D1404246&database=RX&origin=ReaxysOutput&ln=