Structure: Image,SMILES,Substance Identification: Reaxys Registry Number,Links to Reaxys,Data Count,CAS Registry Number,Chemical Name,Linear Structure Formula,Molecular Formula,Molecular Weight,Type of Substance,Type and Modification,InChI Key,Composition: Comp. Name,Composition: Comp. Conc.,Composition: Comp. Attrib.,Field Availability,Number of Reactions,Number of References,Melting Point: Melting Point [C],Solvent (Melting Point),Location,Comment (Melting Point),Crystallizes With,Amount (Melting Point) [mol],References,Links to Reaxys.1
,CC1CC(=O)N1,1523879.0,https://www.reaxys.com/reaxys/secured/hopinto.do?context=S&query=IDE.XRN%3D1523879&database=RX&origin=ReaxysOutput&ln=,(1339 of 4000),5303-64-0,4-methyl-2-azetidinone; 4-Methyl-azetidin-2-on,C4H7NO,C4H7NO,85.1057,heterocyclic,,XMSFNEZQRPOHAR-UHFFFAOYSA-N,,,,Identification(26); Physical Data(10); Spectra(5),20.0,29.0,-18,,,,,,"Article; Graf,R.; Justus Liebigs Annalen der Chemie; vol. 661; (1963); p. 111 - 157;",https://www.reaxys.com/reaxys/secured/hopinto.do?context=C&query=CNR.CNR%3D77433&database=RX&origin=ReaxysOutput&ln=
,CC=CC=NO,1719702.0,https://www.reaxys.com/reaxys/secured/hopinto.do?context=S&query=IDE.XRN%3D1719702&database=RX&origin=ReaxysOutput&ln=,(1340 of 4000),5314-34-1,crotonaldoxime; but-2-enal oxime; crotonaldehyde-oxime; Crotonaldehyd-oxim,C4H7NO,C4H7NO,85.1057,acyclic,,UKWWWNDNBRTZFR-UHFFFAOYSA-N,,,,Identification(9); Physical Data(11); Spectra(3),22.0,20.0,3,,,liquid form,,,"Article; Gouge; Comptes Rendus Hebdomadaires des Seances de l'Academie des Sciences; vol. 225; (1947); p. 637,638;",https://www.reaxys.com/reaxys/secured/hopinto.do?context=C&query=CNR.CNR%3D1378478&database=RX&origin=ReaxysOutput&ln=
,C\C=C/C(N)=O,1719940.0,https://www.reaxys.com/reaxys/secured/hopinto.do?context=S&query=IDE.XRN%3D1719940&database=RX&origin=ReaxysOutput&ln=,(1341 of 4000),31110-30-2,cis-2-butenamide; (Z)-but-2-enamide; (Z)-crotonamide; cis-Crotoamin; cis-crotonamide; Amid der Isocrotonsaeure; cis-Crotonamid; Isocrotonamid,C4H7NO,C4H7NO,85.1057,acyclic,,NQQRXZOPZBKCNF-IHWYPQMZSA-N,,,,Identification(14); Physical Data(16); Spectra(8),15.0,19.0,115 - 116,,supporting information,,,,"Article; Liu, Zhenxing; Xu, Chaofan; Del Pozo, Juan; Torker, Sebastian; Hoveyda, Amir H.; Journal of the American Chemical Society; vol. 141; 17; (2019); p. 7137 - 7146;",https://www.reaxys.com/reaxys/secured/hopinto.do?context=C&query=CNR.CNR%3D76544549&database=RX&origin=ReaxysOutput&ln=
,C\C=C\C(N)=O,1719941.0,https://www.reaxys.com/reaxys/secured/hopinto.do?context=S&query=IDE.XRN%3D1719941&database=RX&origin=ReaxysOutput&ln=,(1342 of 4000),625-37-6,crotonamide; (E)-but-2-enamide; 2-Butenamide,C4H7NO,C4H7NO,85.1057,acyclic,,NQQRXZOPZBKCNF-NSCUHMNNSA-N,,,,Identification(76); Physical Data(19); Spectra(9); Bioactivity(7),70.0,130.0,154.5 - 156,,,,,,Article; Madhavan et al.; Journal of the American Chemical Society; vol. 97; (1975); p. 2989;,https://www.reaxys.com/reaxys/secured/hopinto.do?context=C&query=CNR.CNR%3D3855044&database=RX&origin=ReaxysOutput&ln=
,CC(=O)\C=C/N,1719947.0,https://www.reaxys.com/reaxys/secured/hopinto.do?context=S&query=IDE.XRN%3D1719947&database=RX&origin=ReaxysOutput&ln=,(1343 of 4000),2802-09-7,cis-1-amino-1-buten-3-one; 1-Amino-1-buten-3-on; 4-amino-3-buten-2-one,C4H7NO,C4H7NO,85.1057,acyclic,,NGUGWHFIVAQVMN-IHWYPQMZSA-N,,,,Identification(23); Physical Data(10); Spectra(14),17.0,21.0,11 - 13,,,,,,"Article; Kotschetkow; Dombrowskii; Zhurnal Obshchei Khimii; vol. 26; (1956); p. 3081,3086;engl.Ausg.S.3431,3436;",https://www.reaxys.com/reaxys/secured/hopinto.do?context=C&query=CNR.CNR%3D1267058&database=RX&origin=ReaxysOutput&ln=
,CC(=O)CC=N,1720121.0,https://www.reaxys.com/reaxys/secured/hopinto.do?context=S&query=IDE.XRN%3D1720121&database=RX&origin=ReaxysOutput&ln=,(1344 of 4000),2976-87-6,acetoacetaldehyde-1-imine; Acetoacetaldehyd-1-imin,C4H7NO,C4H7NO,85.1057,acyclic,,FGAFDGCEPLZCQD-UHFFFAOYSA-N,,,,Identification(9); Physical Data(11); Spectra(3),3.0,5.0,11 - 13,,,α-isomer(ic),,,"Article; Kotschetkow; Dombrowskii; Zhurnal Obshchei Khimii; vol. 26; (1956); p. 3081,3086;engl.Ausg.S.3431,3436;",https://www.reaxys.com/reaxys/secured/hopinto.do?context=C&query=CNR.CNR%3D1267058&database=RX&origin=ReaxysOutput&ln=
,CNC=CC=O,1738003.0,https://www.reaxys.com/reaxys/secured/hopinto.do?context=S&query=IDE.XRN%3D1738003&database=RX&origin=ReaxysOutput&ln=,(1345 of 4000),25299-35-8,β-methylaminoacrolein,C4H7NO,C4H7NO,85.1057,acyclic,,AGSONCQUPWJXCJ-UHFFFAOYSA-N,,,,Identification(8); Physical Data(7); Spectra(12),4.0,6.0,42 - 43,,,,,,"Article; Makin et al.; Journal of Organic Chemistry USSR (English Translation); vol. 7; (1971); p. 2201,2202,2204; Zhurnal Organicheskoi Khimii; vol. 7; (1971); p. 2120;; ; Article; Makin et al.; Doklady Vsesoyuznoi Konferentsii po Khimii Atsetilena; vol. 1; (1972); p. 401,402-408; Chem.Abstr.; vol. 79; 17974; Chemisches Zentralblatt; 1973, Abstr.Nr. 3 Zh 120;",https://www.reaxys.com/reaxys/secured/hopinto.do?context=C&query=CNR.CNR%3D3144563&database=RX&origin=ReaxysOutput&ln=
,NC(=O)CC=C,1739270.0,https://www.reaxys.com/reaxys/secured/hopinto.do?context=S&query=IDE.XRN%3D1739270&database=RX&origin=ReaxysOutput&ln=,(1346 of 4000),28446-58-4,but-3-enamide; vinylacetamide,CH2CHCH2CONH2,C4H7NO,85.1057,acyclic,,ABBZJHFBQXYTLU-UHFFFAOYSA-N,,,,Identification(34); Physical Data(17); Spectra(13),35.0,70.0,71 - 72,,,,,,"Article; Theodorou, Vassiliki; Gogou, Marina; Philippidou, Maria; Ragoussis, Valentine; Paraskevopoulos, Georgios; Skobridis, Konstantinos; Tetrahedron; vol. 67; 31; (2011); p. 5630 - 5634;",https://www.reaxys.com/reaxys/secured/hopinto.do?context=C&query=CNR.CNR%3D9069682&database=RX&origin=ReaxysOutput&ln=
,COCCC#N,1739284.0,https://www.reaxys.com/reaxys/secured/hopinto.do?context=S&query=IDE.XRN%3D1739284&database=RX&origin=ReaxysOutput&ln=,(1347 of 4000),110-67-8,3-Methoxypropionitrile,CH3OCH2CH2CN,C4H7NO,85.1057,acyclic,,OOWFYDWAMOKVSF-UHFFFAOYSA-N,,,,Identification(552); Physical Data(102); Spectra(27); Bioactivity(38),209.0,749.0,-62.95,,,,,,Article; Witschonke; Analytical Chemistry; vol. 26; (1954); p. 562;,https://www.reaxys.com/reaxys/secured/hopinto.do?context=C&query=CNR.CNR%3D609866&database=RX&origin=ReaxysOutput&ln=
,OCCCC#N,1739309.0,https://www.reaxys.com/reaxys/secured/hopinto.do?context=S&query=IDE.XRN%3D1739309&database=RX&origin=ReaxysOutput&ln=,(1348 of 4000),628-22-8,4-hydroxy-1-butanitrile,HO(CH2)3CN,C4H7NO,85.1057,acyclic,,BAQQRABCRRQRSR-UHFFFAOYSA-N,,,,Identification(107); Physical Data(23); Spectra(14),67.0,157.0,159 - 161,,,,,,Patent; GLAXOSMITHKLINE PLC; US5049671; (1991); A;,https://www.reaxys.com/reaxys/secured/hopinto.do?context=C&query=CNR.CNR%3D119703&database=RX&origin=ReaxysOutput&ln=
,CC(=O)NC=C,1811672.0,https://www.reaxys.com/reaxys/secured/hopinto.do?context=S&query=IDE.XRN%3D1811672&database=RX&origin=ReaxysOutput&ln=,(1349 of 4000),5202-78-8,acetylaminoethylene; N-vinylacetamide,CH2CHNHCOCH3,C4H7NO,85.1057,acyclic,,RQAKESSLMFZVMC-UHFFFAOYSA-N,,,,Identification(160); Physical Data(12); Spectra(13),410.0,262.0,54 - 55,,,,,,"Article; Dawson et al.; Journal of the American Chemical Society; vol. 98; (1976); p. 5996,5997,5999;",https://www.reaxys.com/reaxys/secured/hopinto.do?context=C&query=CNR.CNR%3D3934363&database=RX&origin=ReaxysOutput&ln=
,CN(C=C)C=O,1848006.0,https://www.reaxys.com/reaxys/secured/hopinto.do?context=S&query=IDE.XRN%3D1848006&database=RX&origin=ReaxysOutput&ln=,(1350 of 4000),2867-48-3,N-vinyl-N-methyl-formamide; N-methyl-N-vinylformamide; N-Methyl-N-vinyl-formamid; N-Vinyl-N-methylformamid,C4H7NO,C4H7NO,85.1057,acyclic,,OFESGEKAXKKFQT-UHFFFAOYSA-N,,,,Identification(28); Physical Data(13); Spectra(4),6.0,35.0,145 - 155,,,,,,Article; Nagata et al.; Nippon Kagaku Kaishi/Journal of the Chemical Society of Japan; (1975); p. 1819;,https://www.reaxys.com/reaxys/secured/hopinto.do?context=C&query=CNR.CNR%3D4067125&database=RX&origin=ReaxysOutput&ln=
,ON=CC1CC1,1922498.0,https://www.reaxys.com/reaxys/secured/hopinto.do?context=S&query=IDE.XRN%3D1922498&database=RX&origin=ReaxysOutput&ln=,(1351 of 4000),66291-30-3,cyclopropanecarbaldehyde oxime; cyclopropanecarboxaldehyde oxime,C4H7NO,C4H7NO,85.1057,isocyclic,,XQDANBKPALOMEF-UHFFFAOYSA-N,,,,Identification(16); Physical Data(9); Spectra(12),24.0,31.0,80 - 81,hexane,,,,,"Article; Wu, Pei-Lin; Wang, Wen-Shan; Journal of Organic Chemistry; vol. 59; 3; (1994); p. 622 - 627;",https://www.reaxys.com/reaxys/secured/hopinto.do?context=C&query=CNR.CNR%3D5857799&database=RX&origin=ReaxysOutput&ln=
,NC(=O)C1CC1,1924346.0,https://www.reaxys.com/reaxys/secured/hopinto.do?context=S&query=IDE.XRN%3D1924346&database=RX&origin=ReaxysOutput&ln=,(1352 of 4000),6228-73-5,Cyclopropancarbamid; cyclopropane-carboxamide; Cyclopropancarbonsaeure-amid; Cyclopropancarboxamid; cyclopropanamide,C4H7NO,C4H7NO,85.1057,isocyclic,,AIMMVWOEOZMVMS-UHFFFAOYSA-N,,,,Identification(231); Physical Data(22); Spectra(21); Bioactivity(22),396.0,390.0,124 - 125,benzene,,,,,"Article; Caubere,P.; Guillaumet,G.; Bulletin de la Societe Chimique de France; (1972); p. 4643 - 4649;",https://www.reaxys.com/reaxys/secured/hopinto.do?context=C&query=CNR.CNR%3D121676&database=RX&origin=ReaxysOutput&ln=
,ON=C1CCC1,2203973.0,https://www.reaxys.com/reaxys/secured/hopinto.do?context=S&query=IDE.XRN%3D2203973&database=RX&origin=ReaxysOutput&ln=,(1353 of 4000),2972-05-6,cyclobutanone oxime,C4H7NO,C4H7NO,85.1057,isocyclic,,YDYCXDWUKJSHMI-UHFFFAOYSA-N,,,,Identification(36); Physical Data(11); Spectra(15),102.0,81.0,75 - 78,,,,,,"Article; Simunic-Meznaric, Vesna; Mihalic, Zlatko; Vancik, Hrvoj; Journal of the Chemical Society. Perkin Transactions 2 (2001); 12; (2002); p. 2154 - 2158;",https://www.reaxys.com/reaxys/secured/hopinto.do?context=C&query=CNR.CNR%3D6384277&database=RX&origin=ReaxysOutput&ln=
,C\C=C\C=N\O,2232043.0,https://www.reaxys.com/reaxys/secured/hopinto.do?context=S&query=IDE.XRN%3D2232043&database=RX&origin=ReaxysOutput&ln=,(1354 of 4000),35713-87-2,"s-trans-(E)-crotonaldehyde oxime; (1E,2E)-but-2-enal oxime; but-2t-enal (E)-oxime; (E)-trans-crotonaldoxime",C4H7NO,C4H7NO,85.1057,acyclic,,UKWWWNDNBRTZFR-MQQKCMAXSA-N,,,,Identification(9); Physical Data(4); Spectra(4),11.0,6.0,120 - 124,,supporting information,,,,"Article; Kinfe, Henok H.; Mabasa, Jackie; Mabasa, Tommy F.; Makhubela, Banothile C. E.; Simelane, Mthokozisi; Vatsha, Banele; Synlett; vol. 31; 10; (2020); p. 991 - 996;",https://www.reaxys.com/reaxys/secured/hopinto.do?context=C&query=CNR.CNR%3D79972821&database=RX&origin=ReaxysOutput&ln=
,NCC#CCO,2408533.0,https://www.reaxys.com/reaxys/secured/hopinto.do?context=S&query=IDE.XRN%3D2408533&database=RX&origin=ReaxysOutput&ln=,(1355 of 4000),63200-68-0,4-aminobut-2-yn-1-ol,C4H7NO,C4H7NO,85.1057,acyclic,,CETGYTZOZAIXBU-UHFFFAOYSA-N,,,,Identification(13); Physical Data(9); Spectra(2),21.0,19.0,58,,,,,,"Article; Zeinyeh, Wael; Mahiout, Zahia; Radix, Sylvie; Lomberget, Thierry; Dumoulin, Axel; Barret, Roland; Grenot, Catherine; Rocheblave, Luc; Walchshofer, Nadia; Matera, Eva-Laure; Dumontet, Charles; Steroids; vol. 77; 12; (2012); p. 1177 - 1191,15;",https://www.reaxys.com/reaxys/secured/hopinto.do?context=C&query=CNR.CNR%3D80537563&database=RX&origin=ReaxysOutput&ln=
,C[C@@H]1CNC1=O,5240046.0,https://www.reaxys.com/reaxys/secured/hopinto.do?context=S&query=IDE.XRN%3D5240046&database=RX&origin=ReaxysOutput&ln=,(1356 of 4000),107835-31-4,(3R)-(+)-methylazetidin-2-one; (3R)-3-methylazetidin-2-one,C4H7NO,C4H7NO,85.1057,heterocyclic,,XYAPRMQTKAOTJZ-GSVOUGTGSA-N,,,,Identification(8); Physical Data(6); Spectra(5),2.0,3.0,43 - 45,hexane; diethyl ether,,,,,Article; Shustov; Rauk; Tetrahedron Asymmetry; vol. 7; 3; (1996); p. 699 - 708;,https://www.reaxys.com/reaxys/secured/hopinto.do?context=C&query=CNR.CNR%3D6016315&database=RX&origin=ReaxysOutput&ln=
,C[C@H]1CNC1=O,5240047.0,https://www.reaxys.com/reaxys/secured/hopinto.do?context=S&query=IDE.XRN%3D5240047&database=RX&origin=ReaxysOutput&ln=,(1357 of 4000),107835-32-5,(3S)-(-)-3-methylazetidin-2-one,C4H7NO,C4H7NO,85.1057,heterocyclic,,XYAPRMQTKAOTJZ-VKHMYHEASA-N,,,,Identification(8); Physical Data(9),2.0,3.0,44 - 46,hexane; diethyl ether,,,,,Article; Shustov; Rauk; Tetrahedron Asymmetry; vol. 7; 3; (1996); p. 699 - 708;,https://www.reaxys.com/reaxys/secured/hopinto.do?context=C&query=CNR.CNR%3D6016315&database=RX&origin=ReaxysOutput&ln=
,NC1=NCCN1,105319.0,https://www.reaxys.com/reaxys/secured/hopinto.do?context=S&query=IDE.XRN%3D105319&database=RX&origin=ReaxysOutput&ln=,(1358 of 4000),19437-45-7,"2-amino-2-imidazoline; 2-Amino-imidazolin; 2-Amino-2-imidazolin; 4,5-dihydro-1H-imidazol-2-amine; 4,5-dihydro-1H-imidazol-2-ylamine",C3H7N3,C3H7N3,85.1087,heterocyclic,,DISXFZWKRTZTRI-UHFFFAOYSA-N,,,,Identification(28); Physical Data(3); Spectra(6),27.0,33.0,194,,,,,,Patent; ALBERT ROLLAND; US4647557; (1987); A;,https://www.reaxys.com/reaxys/secured/hopinto.do?context=C&query=CNR.CNR%3D73686&database=RX&origin=ReaxysOutput&ln=
,NC1=CCNN1,605692.0,https://www.reaxys.com/reaxys/secured/hopinto.do?context=S&query=IDE.XRN%3D605692&database=RX&origin=ReaxysOutput&ln=,(1359 of 4000),5179-16-8,3-Amino-Δ3-pyrazolin,C3H7N3,C3H7N3,85.1087,heterocyclic,,CWZRXXJJOCTIJA-UHFFFAOYSA-N,,,,Identification(10); Physical Data(2),1.0,3.0,144 - 145,methanol,,,,,Article; Dorn; Zubek; Zeitschrift fur Chemie; vol. 5; (1965); p. 456;,https://www.reaxys.com/reaxys/secured/hopinto.do?context=C&query=CNR.CNR%3D2651252&database=RX&origin=ReaxysOutput&ln=
,NNCCC#N,773834.0,https://www.reaxys.com/reaxys/secured/hopinto.do?context=S&query=IDE.XRN%3D773834&database=RX&origin=ReaxysOutput&ln=,(1360 of 4000),353-07-1,3-hydrazinylpropanenitrile; 2-cyanoethyl-hydrazine; cyanoethylhydrazine; 3-hydrazinopropanenitrile; 3-hydrazinopropionitrile,NH2NHCH2CH2CN,C3H7N3,85.1087,acyclic,,VIHRIIARIFUQLC-UHFFFAOYSA-N,,,,Identification(26); Physical Data(14); Spectra(3),179.0,130.0,80,,,,,,Patent; BAYER AG; CREMONA ANGELO; US3987168; (1976); A;,https://www.reaxys.com/reaxys/secured/hopinto.do?context=C&query=CNR.CNR%3D7084001&database=RX&origin=ReaxysOutput&ln=
,CN(C)NC#N,2408710.0,https://www.reaxys.com/reaxys/secured/hopinto.do?context=S&query=IDE.XRN%3D2408710&database=RX&origin=ReaxysOutput&ln=,(1361 of 4000),114448-00-9,"1-Cyan-2,2-dimethyl-hydrazin",C3H7N3,C3H7N3,85.1087,acyclic,,DHHYFPHPENRDMA-UHFFFAOYSA-N,,,,Identification(6); Physical Data(1),1.0,2.0,128 - 129.5,ethyl acetate,,Decomposition,,,"Article; Ogimachi,N.N.; Kruse,H.W.; Journal of Organic Chemistry; vol. 26; (1961); p. 1641 - 1642;",https://www.reaxys.com/reaxys/secured/hopinto.do?context=C&query=CNR.CNR%3D173785&database=RX&origin=ReaxysOutput&ln=
,S1C=CN=C1,103852.0,https://www.reaxys.com/reaxys/secured/hopinto.do?context=S&query=IDE.XRN%3D103852&database=RX&origin=ReaxysOutput&ln=,(1362 of 4000),288-47-1,"1,3-thiazole; Thiazole",NC3H3S,C3H3NS,85.1295,heterocyclic,,FZWLAAWBMGSTSO-UHFFFAOYSA-N,,,,Identification(4327); Physical Data(147); Spectra(113); Bioactivity(268),1142.0,5102.0,223,methanol,,,,,"Article; Jain, Shubha; Chourey, Meena; Jetti, Srinivasa Rao; Croatica Chemica Acta; vol. 85; 2; (2012); p. 155 - 157,3;",https://www.reaxys.com/reaxys/secured/hopinto.do?context=C&query=CNR.CNR%3D80728044&database=RX&origin=ReaxysOutput&ln=
,C1CCNCC1,102438.0,https://www.reaxys.com/reaxys/secured/hopinto.do?context=S&query=IDE.XRN%3D102438&database=RX&origin=ReaxysOutput&ln=,(1364 of 4000),110-89-4,piperidine,C5NH11,C5H11N,85.149,heterocyclic,,NQRYJNQNLNOLGT-UHFFFAOYSA-N,,,,Identification(10336); Physical Data(969); Spectra(140); Bioactivity(1921),55713.0,37384.0,-10.16,,,,water monomer,11.0,"Article; Dobrzycki, Lukasz; Socha, Paweł; Ciesielski, Arkadiusz; Boese, Roland; Cyrański, Michał K.; Crystal Growth and Design; vol. 19; 2; (2019); p. 1005 - 1020;",https://www.reaxys.com/reaxys/secured/hopinto.do?context=C&query=CNR.CNR%3D75747407&database=RX&origin=ReaxysOutput&ln=
,CN1CCCC1,102445.0,https://www.reaxys.com/reaxys/secured/hopinto.do?context=S&query=IDE.XRN%3D102445&database=RX&origin=ReaxysOutput&ln=,(1365 of 4000),120-94-5,1-Methylpyrrolidine; N-Methylpyrrolidine,NC4H8CH3,C5H11N,85.149,heterocyclic,,AVFZOVWCLRSYKC-UHFFFAOYSA-N,,,,Identification(1024); Physical Data(87); Spectra(65); Bioactivity(89),1092.0,1686.0,76 - 79,,,,,,"Article; Akabori, Sadatoshi; Takanohashi, Yoshinori; Journal of the Chemical Society. Perkin transactions I; 2; (1991); p. 479 - 482;",https://www.reaxys.com/reaxys/secured/hopinto.do?context=C&query=CNR.CNR%3D5541487&database=RX&origin=ReaxysOutput&ln=
,NC1CCCC1,635706.0,https://www.reaxys.com/reaxys/secured/hopinto.do?context=S&query=IDE.XRN%3D635706&database=RX&origin=ReaxysOutput&ln=,(1366 of 4000),1003-03-8,Cyclopentamine; CYCLOPENTYLAMINE,H2NC5H9,C5H11N,85.149,isocyclic,,NISGSNTVMOOSJQ-UHFFFAOYSA-N,,,,Identification(495); Physical Data(79); Spectra(33); Bioactivity(169),6476.0,3249.0,86 - 88,,Page/Page column 63,,,,Patent; UNIVERSITY OF LIEGE; WO2020/212553; (2020); A1;,https://www.reaxys.com/reaxys/secured/hopinto.do?context=C&query=CNR.CNR%3D81302325&database=RX&origin=ReaxysOutput&ln=
,CC(C)=CCN,1733989.0,https://www.reaxys.com/reaxys/secured/hopinto.do?context=S&query=IDE.XRN%3D1733989&database=RX&origin=ReaxysOutput&ln=,(1367 of 4000),13822-06-5; 108963-90-2,"3,3-dimethylallylamine; 3-methylbut-2-en-1-amine; 1-amino-3-methyl-2-butene; 3-methylbut-2-enyl amine; 3-methyl-2-buten-1-amine; isoprenyl amine",NH2C5H9,C5H11N,85.149,acyclic,,PFCBHFDNVFQUJI-UHFFFAOYSA-N,,,,Identification(37); Physical Data(19); Spectra(10); Bioactivity(7),220.0,114.0,96 - 98,,,,,,Patent; UNIVERSITY OF STRATHCLYDE; US5945455; (1999); A;,https://www.reaxys.com/reaxys/secured/hopinto.do?context=C&query=CNR.CNR%3D157912&database=RX&origin=ReaxysOutput&ln=
,C\C=N/C(C)C,2408622.0,https://www.reaxys.com/reaxys/secured/hopinto.do?context=S&query=IDE.XRN%3D2408622&database=RX&origin=ReaxysOutput&ln=,(1368 of 4000),27719-14-8; 72037-49-1,ethylidene isopropylamine; N-ethylidene-N-isopropyl-amine; N-isopropylethaneimine,C5H11N,C5H11N,85.149,acyclic,,MXOWOGWCSFJPNN-XQRVVYSFSA-N,,,,Identification(10); Physical Data(1); Spectra(2),3.0,7.0,99 - 101,,,,,,Patent; PFIZER INC; US5593967; (1997); A;,https://www.reaxys.com/reaxys/secured/hopinto.do?context=C&query=CNR.CNR%3D7164940&database=RX&origin=ReaxysOutput&ln=
,C[SiH](C)C#N,1737192.0,https://www.reaxys.com/reaxys/secured/hopinto.do?context=S&query=IDE.XRN%3D1737192&database=RX&origin=ReaxysOutput&ln=,(1369 of 4000),18192-18-2,dimethylsilyl cyanide; Dimethylcyanosilan; Dimethylsilyl-cyanid; cyano-dimethyl-silane; Dimethyl-silancarbonitril; Cyan-dimethyl-silan,C3H7NSi,C3H7NSi,85.1808,acyclic,,ACIKUNQXMXPVKF-UHFFFAOYSA-N,,,,Identification(7); Physical Data(3); Spectra(8),2.0,7.0,-60.9,,,,,,Article; Kuchen; Zeitschrift fur Anorganische und Allgemeine Chemie; vol. 288; (1956); p. 101;,https://www.reaxys.com/reaxys/secured/hopinto.do?context=C&query=CNR.CNR%3D1278073&database=RX&origin=ReaxysOutput&ln=
,ClC#CC#N,1209263.0,https://www.reaxys.com/reaxys/secured/hopinto.do?context=S&query=IDE.XRN%3D1209263&database=RX&origin=ReaxysOutput&ln=,(1371 of 4000),2003-31-8,chlorocyanoacetylene; Chlorcyanoacetylen; Chlorcyanacetylen,ClC3N,C3ClN,85.4927,acyclic,,XJKVOBGMBLGZQB-UHFFFAOYSA-N,,,,Identification(15); Physical Data(11); Spectra(10),23.0,29.0,42 - 43.5,,,,,,"Patent; Morita et al.; JP2971; (1969); Ref. Zh., Khim.; vol. 4; 4H122P; (1970); Ref. Zh., Khim.; vol. 4; 4H122P; (1970);",https://www.reaxys.com/reaxys/secured/hopinto.do?context=C&query=CNR.CNR%3D4509030&database=RX&origin=ReaxysOutput&ln=