Structure: Image,SMILES,Substance Identification: Reaxys Registry Number,Links to Reaxys,Data Count,CAS Registry Number,Chemical Name,Linear Structure Formula,Molecular Formula,Molecular Weight,Type of Substance,Type and Modification,InChI Key,Composition: Comp. Name,Composition: Comp. Conc.,Composition: Comp. Attrib.,Field Availability,Number of Reactions,Number of References,Melting Point: Melting Point [C],Solvent (Melting Point),Location,Comment (Melting Point),Crystallizes With,Amount (Melting Point) [mol],References,Links to Reaxys.1
,C1COCCO1,102551.0,https://www.reaxys.com/reaxys/secured/hopinto.do?context=S&query=IDE.XRN%3D102551&database=RX&origin=ReaxysOutput&ln=,(1640 of 4000),123-91-1,"1,4-dioxane; p-dioxan; DIOXANE",CH2CH2OCH2CH2O,C4H8O2,88.1063,heterocyclic,,RYHBNJHYFVUHQT-UHFFFAOYSA-N,,,,Identification(2338); Physical Data(2578); Spectra(151); Bioactivity(466),7175.0,8042.0,11.11,,,,,,"Article; Rodnikova, M. N.; Solonina, I. A.; Makaev, S. V.; Kiselev, M. R.; Russian Journal of Physical Chemistry; vol. 86; 11; (2012); p. 1745 - 1746,2; Zhurnal Fizicheskoi Khimii; vol. 86; 11; (2012); p. 1874 - 1876,3;",https://www.reaxys.com/reaxys/secured/hopinto.do?context=C&query=CNR.CNR%3D20213229&database=RX&origin=ReaxysOutput&ln=
,CC(O)C(C)=O,385636.0,https://www.reaxys.com/reaxys/secured/hopinto.do?context=S&query=IDE.XRN%3D385636&database=RX&origin=ReaxysOutput&ln=,(1641 of 4000),513-86-0; 52217-02-4,3-hydroxy-2-butanon,CH3COCHOHCH3,C4H8O2,88.1063,acyclic,,ROWKJAVDOGWPAT-UHFFFAOYSA-N,,,,Identification(5462); Physical Data(87); Spectra(66); Bioactivity(348),841.0,6057.0,15,,,,,,"Article; Smith, David; Chippendale, Thomas W.E.; Španěl, Patrik; International Journal of Mass Spectrometry; vol. 303; 2-3; (2011); p. 81 - 89;",https://www.reaxys.com/reaxys/secured/hopinto.do?context=C&query=CNR.CNR%3D20085832&database=RX&origin=ReaxysOutput&ln=
,CCOC(C)=O,506104.0,https://www.reaxys.com/reaxys/secured/hopinto.do?context=S&query=IDE.XRN%3D506104&database=RX&origin=ReaxysOutput&ln=,(1642 of 4000),141-78-6,ethyl acetate; Acetic acid ethyl ester,C2H5COOCH3,C4H8O2,88.1063,acyclic,,XEKOWRVHYACXOJ-UHFFFAOYSA-N,,,,Identification(8255); Physical Data(2653); Spectra(287); Bioactivity(1008),9991.0,17828.0,-83.6,,,,,,Patent; AMGEN INC; US2008/75777; (2008); A1;,https://www.reaxys.com/reaxys/secured/hopinto.do?context=C&query=CNR.CNR%3D459428&database=RX&origin=ReaxysOutput&ln=
,CC(C)C(O)=O,635770.0,https://www.reaxys.com/reaxys/secured/hopinto.do?context=S&query=IDE.XRN%3D635770&database=RX&origin=ReaxysOutput&ln=,(1643 of 4000),79-31-2,i-Butyric acid; isobutyric Acid,HOOCCH(CH3)2,C4H8O2,88.1063,acyclic,,KQNPFQTWMSNSAP-UHFFFAOYSA-N,,,,Identification(4813); Physical Data(661); Spectra(130); Bioactivity(429),2949.0,7928.0,-45.96,,,,,,Article; Vyalikh; Emmler; Shenderovich; Zeng; Findenegg; Buntkowsky; Physical Chemistry Chemical Physics; vol. 9; 18; (2007); p. 2249 - 2257;,https://www.reaxys.com/reaxys/secured/hopinto.do?context=C&query=CNR.CNR%3D7176807&database=RX&origin=ReaxysOutput&ln=
,CCCC(O)=O,906770.0,https://www.reaxys.com/reaxys/secured/hopinto.do?context=S&query=IDE.XRN%3D906770&database=RX&origin=ReaxysOutput&ln=,(1644 of 4000),107-92-6,butyric acid; butanoic acid,C4H7O2H,C4H8O2,88.1063,acyclic,,FERIUCNNQQJTOY-UHFFFAOYSA-N,,,,Identification(16888); Physical Data(1457); Spectra(204); Bioactivity(1464),3909.0,21952.0,-6 - -3,,,,,,"Article; Chang, Fei; Kim, Hakwon; Lee, Byeongno; Park, Sungho; Park, Jaiwook; Tetrahedron Letters; vol. 51; 32; (2010); p. 4250 - 4252;",https://www.reaxys.com/reaxys/secured/hopinto.do?context=C&query=CNR.CNR%3D8908974&database=RX&origin=ReaxysOutput&ln=
,OC\C=C/CO,1679241.0,https://www.reaxys.com/reaxys/secured/hopinto.do?context=S&query=IDE.XRN%3D1679241&database=RX&origin=ReaxysOutput&ln=,(1645 of 4000),6117-80-2,"1,4-butenediol; cis-2-Butene-1,4-diol",CH2OHCHCHCH2OH,C4H8O2,88.1063,acyclic,,ORTVZLZNOYNASJ-UPHRSURJSA-N,,,,Identification(287); Physical Data(40); Spectra(36); Bioactivity(56),897.0,1107.0,7 - 9,,,,,,"Article; Feit,P.W.; Chemische Berichte; vol. 93; (1960); p. 116 - 127;",https://www.reaxys.com/reaxys/secured/hopinto.do?context=C&query=CNR.CNR%3D35834&database=RX&origin=ReaxysOutput&ln=
,OC\C=C\CO,1719691.0,https://www.reaxys.com/reaxys/secured/hopinto.do?context=S&query=IDE.XRN%3D1719691&database=RX&origin=ReaxysOutput&ln=,(1646 of 4000),821-11-4,"(E)-2-butene-1,4-diol; trans-butene-1,4-diol",HOCH2CHCHCH2OH,C4H8O2,88.1063,acyclic,,ORTVZLZNOYNASJ-OWOJBTEDSA-N,,,,Identification(217); Physical Data(51); Spectra(67); Bioactivity(21),197.0,419.0,27.3,,,,,,"Article; Smith et al.; Journal of the American Chemical Society; vol. 78; (1956); p. 626,629;",https://www.reaxys.com/reaxys/secured/hopinto.do?context=C&query=CNR.CNR%3D1426123&database=RX&origin=ReaxysOutput&ln=
,OCC=CCO,1735815.0,https://www.reaxys.com/reaxys/secured/hopinto.do?context=S&query=IDE.XRN%3D1735815&database=RX&origin=ReaxysOutput&ln=,(1647 of 4000),821-11-4; 6117-80-2; 110-64-5,"2-butene-1,4-diol; 1,4-butenediol",HOCH2CHCHCH2OH,C4H8O2,88.1063,acyclic,,ORTVZLZNOYNASJ-UHFFFAOYSA-N,,,,Identification(61); Physical Data(32); Spectra(23); Bioactivity(16),215.0,303.0,25.5,,,,,,"Article; Prevost; Annales de Chimie (Cachan, France); vol. &lt;10&gt;10; (1928); p. 357,378,389 Anm.; Comptes Rendus Hebdomadaires des Seances de l'Academie des Sciences; vol. 182; (1926); p. 854,1475;",https://www.reaxys.com/reaxys/secured/hopinto.do?context=C&query=CNR.CNR%3D1315523&database=RX&origin=ReaxysOutput&ln=
,CC(O)CC=O,1735845.0,https://www.reaxys.com/reaxys/secured/hopinto.do?context=S&query=IDE.XRN%3D1735845&database=RX&origin=ReaxysOutput&ln=,(1648 of 4000),107-89-1,acetaldol; 3-hydroxybutanal; 3-hydroxybutyraldehyde; aldol; β-hydroxybutyraldehyde,C4H8O2,C4H8O2,88.1063,acyclic,,HSJKGGMUJITCBW-UHFFFAOYSA-N,,,,Identification(1459); Physical Data(31); Spectra(20); Bioactivity(82),302.0,1636.0,93 - 95,,,,,,"Article; Bunijatsade; Bulatnikowa; Azerbaidzhanskii Khimicheskii Zhurnal; vol. 5; (1967); p. 141,142; Chem.Abstr.; vol. 69; 19938; (1968);",https://www.reaxys.com/reaxys/secured/hopinto.do?context=C&query=CNR.CNR%3D4160429&database=RX&origin=ReaxysOutput&ln=
,CCC(=O)OC,1737628.0,https://www.reaxys.com/reaxys/secured/hopinto.do?context=S&query=IDE.XRN%3D1737628&database=RX&origin=ReaxysOutput&ln=,(1649 of 4000),554-12-1,Methyl propionate; propanoic acid methyl ester,C2H5OC(O)CH3,C4H8O2,88.1063,acyclic,,RJUFJBKOKNCXHH-UHFFFAOYSA-N,,,,Identification(1155); Physical Data(480); Spectra(133); Bioactivity(132),825.0,2246.0,-90,,,,,,"Article; Hennaut-Roland;zit.bei Lafontaine; Bulletin des Societes Chimiques Belges; vol. 67; (1958); p. 153,156;",https://www.reaxys.com/reaxys/secured/hopinto.do?context=C&query=CNR.CNR%3D1174715&database=RX&origin=ReaxysOutput&ln=
,CC(=O)CCO,1737666.0,https://www.reaxys.com/reaxys/secured/hopinto.do?context=S&query=IDE.XRN%3D1737666&database=RX&origin=ReaxysOutput&ln=,(1650 of 4000),590-90-9,1-Hydroxy-3-butanone; 4-hydroxy-2-butanone,HO(CH2)2COCH3,C4H8O2,88.1063,acyclic,,LVSQXDHWDCMMRJ-UHFFFAOYSA-N,,,,Identification(455); Physical Data(61); Spectra(44); Bioactivity(49),495.0,886.0,241 - 243,,,,,,Patent; UNIVERSITY OF MINNESOTA SYSTEM; US4931559; (1990); A;; ; Patent; UNIVERSITY OF MINNESOTA SYSTEM; US4950758; (1990); A;; ; Patent; UNIVERSITY OF MINNESOTA SYSTEM; SOUTHERN RESEARCH INSTITUTE; US5122517; (1992); A;; ; Patent; UNIVERSITY OF MINNESOTA SYSTEM; UNIVERSITY OF CALIFORNIA; US4916224; (1990); A;,https://www.reaxys.com/reaxys/secured/hopinto.do?context=C&query=CNR.CNR%3D111411&database=RX&origin=ReaxysOutput&ln=
,CCCOC=O,1739272.0,https://www.reaxys.com/reaxys/secured/hopinto.do?context=S&query=IDE.XRN%3D1739272&database=RX&origin=ReaxysOutput&ln=,(1651 of 4000),110-74-7,propyl methanoate; propyl formate; n-propyl formate,HCO2C3H7,C4H8O2,88.1063,acyclic,,KFNNIILCVOLYIR-UHFFFAOYSA-N,,,,Identification(169); Physical Data(325); Spectra(36); Bioactivity(37),117.0,486.0,-92.9,,,,,,Article; Timmermans; Bulletin des Societes Chimiques Belges; vol. 31; (1922); p. 390; Bulletin des Societes Chimiques Belges; vol. 36; (1927); p. 505; Chemisches Zentralblatt; vol. 94; III; (1923); p. 1137;,https://www.reaxys.com/reaxys/secured/hopinto.do?context=C&query=CNR.CNR%3D1318284&database=RX&origin=ReaxysOutput&ln=
,CO\C=C/OC,1900871.0,https://www.reaxys.com/reaxys/secured/hopinto.do?context=S&query=IDE.XRN%3D1900871&database=RX&origin=ReaxysOutput&ln=,(1652 of 4000),7062-96-6,"(Z)-1,2-Dimethoxyethylen; cis-1,2-dimethoxyethene; cis-1,2-Dimethoxyethen",CH3OCHCHOCH3,C4H8O2,88.1063,acyclic,,SJQBHNHASPQACB-ARJAWSKDSA-N,,,,Identification(27); Physical Data(16); Spectra(20),38.0,50.0,97,,,,,,"Article; Lattrell,R.; Justus Liebigs Annalen der Chemie; vol. 722; (1969); p. 132 - 141;",https://www.reaxys.com/reaxys/secured/hopinto.do?context=C&query=CNR.CNR%3D78797&database=RX&origin=ReaxysOutput&ln=
,CO\C=C\OC,1900872.0,https://www.reaxys.com/reaxys/secured/hopinto.do?context=S&query=IDE.XRN%3D1900872&database=RX&origin=ReaxysOutput&ln=,(1653 of 4000),7062-97-7,"(E)-1,2-dimethoxyethene",CH3OCHCHOCH3,C4H8O2,88.1063,acyclic,,SJQBHNHASPQACB-ONEGZZNKSA-N,,,,Identification(43); Physical Data(15); Spectra(18),27.0,51.0,93,,,,,,"Article; Lattrell,R.; Justus Liebigs Annalen der Chemie; vol. 722; (1969); p. 132 - 141;",https://www.reaxys.com/reaxys/secured/hopinto.do?context=C&query=CNR.CNR%3D78797&database=RX&origin=ReaxysOutput&ln=
,O[C@@H]1CC[C@H]1O,2203036.0,https://www.reaxys.com/reaxys/secured/hopinto.do?context=S&query=IDE.XRN%3D2203036&database=RX&origin=ReaxysOutput&ln=,(1654 of 4000),35358-33-9; 35358-34-0; 100130-45-8; 105663-20-5,"trans-cyclobutane-1,2-diol; trans-Cyclobutan-1,2-diol",C4H8O2,C4H8O2,88.1063,isocyclic,,MHPMXFUDCYMCOE-QWWZWVQMSA-N,,,,Identification(6); Physical Data(4),3.0,3.0,72,,,,,,Article; Conia; Barnier; Tetrahedron Letters; (1971); p. 4981;,https://www.reaxys.com/reaxys/secured/hopinto.do?context=C&query=CNR.CNR%3D3858456&database=RX&origin=ReaxysOutput&ln=
,O[C@H]1CC[C@H]1O,2203037.0,https://www.reaxys.com/reaxys/secured/hopinto.do?context=S&query=IDE.XRN%3D2203037&database=RX&origin=ReaxysOutput&ln=,(1655 of 4000),35358-33-9,"cis-1,2-Cyclobutandiol",C4H6(OH)2,C4H8O2,88.1063,isocyclic,,MHPMXFUDCYMCOE-ZXZARUISSA-N,,,,Identification(16); Physical Data(8); Spectra(7),24.0,15.0,12,,,,,,"Article; Barnier et al.; Tetrahedron; vol. 30; (1974); p. 1397,1402;; ; Article; Conia; Barnier; Tetrahedron Letters; (1971); p. 4981;",https://www.reaxys.com/reaxys/secured/hopinto.do?context=C&query=CNR.CNR%3D3170555&database=RX&origin=ReaxysOutput&ln=
,O[C@H]1CC[C@@H]1O,2551616.0,https://www.reaxys.com/reaxys/secured/hopinto.do?context=S&query=IDE.XRN%3D2551616&database=RX&origin=ReaxysOutput&ln=,(1656 of 4000),105663-20-5,"trans-1,2-Cyclobutandiol",C4H8O2,C4H8O2,88.1063,isocyclic,,MHPMXFUDCYMCOE-IMJSIDKUSA-N,,,,Identification(7); Physical Data(1); Spectra(3),3.0,2.0,72,,,,,,"Article; Barnier et al.; Tetrahedron; vol. 30; (1974); p. 1397,1402;",https://www.reaxys.com/reaxys/secured/hopinto.do?context=C&query=CNR.CNR%3D3170555&database=RX&origin=ReaxysOutput&ln=
,CCC=C(O)O,14656848.0,https://www.reaxys.com/reaxys/secured/hopinto.do?context=S&query=IDE.XRN%3D14656848&database=RX&origin=ReaxysOutput&ln=,(1658 of 4000),759405-15-7,butene diol; dihydroxybutene; cis-butenediol,C4H8O2,C4H8O2,88.1063,,,CPRDLBPDNZTCSM-UHFFFAOYSA-N,,,,Identification(52); Physical Data(1); Spectra(2),3.0,52.0,87 - 89,,,,,,Patent; Novartis (w/o Sandoz); NOVARTIS AG; US3935277; (1976); A;; ; Patent; Novartis (w/o Sandoz); NOVARTIS AG; US4001305; (1977); A;; ; Patent; Novartis (w/o Sandoz); NOVARTIS AG; US4054592; (1977); A;,https://www.reaxys.com/reaxys/secured/hopinto.do?context=C&query=CNR.CNR%3D15630&database=RX&origin=ReaxysOutput&ln=
,OC1CCC1O,31148426.0,https://www.reaxys.com/reaxys/secured/hopinto.do?context=S&query=IDE.XRN%3D31148426&database=RX&origin=ReaxysOutput&ln=,(1659 of 4000),,"cis-1,2-cyclobutanediol",C4H8O2,C4H8O2,88.1063,,cis,MHPMXFUDCYMCOE-UHFFFAOYSA-N,,,,Identification(5); Physical Data(1); Spectra(2),1.0,1.0,12 - 13,,,,,,Article; Barnier; Champion; Conia; Organic Syntheses; vol. 60; (1981); p. 25 - 25;,https://www.reaxys.com/reaxys/secured/hopinto.do?context=C&query=CNR.CNR%3D71223148&database=RX&origin=ReaxysOutput&ln=
,CC#CC#CC#C,1697135.0,https://www.reaxys.com/reaxys/secured/hopinto.do?context=S&query=IDE.XRN%3D1697135&database=RX&origin=ReaxysOutput&ln=,(1661 of 4000),66486-68-8,"Heptatriin-(1,3,5)",C7H4,C7H4,88.1088,acyclic,,RZZZNMYNZMTPRN-UHFFFAOYSA-N,,,,Identification(11); Physical Data(1); Spectra(7),22.0,15.0,17,,,,,,"Article; Chodkiewicz; Annales de Chimie (Cachan, France); vol. &lt;13&gt; 2; (1957); p. 819,861, 862;",https://www.reaxys.com/reaxys/secured/hopinto.do?context=C&query=CNR.CNR%3D1643130&database=RX&origin=ReaxysOutput&ln=
,CCC(=O)NN,506227.0,https://www.reaxys.com/reaxys/secured/hopinto.do?context=S&query=IDE.XRN%3D506227&database=RX&origin=ReaxysOutput&ln=,(1662 of 4000),5818-15-5,d'hydrazide de l'acide propionique; Propionylhydrazin,CH3CH2C(O)NHNH2,C3H8N2O,88.1093,acyclic,,DXGIRFAFSFKYCF-UHFFFAOYSA-N,,,,Identification(72); Physical Data(19); Spectra(16); Bioactivity(15),264.0,232.0,38 - 40,methanol,,,,,"Article; Saha, Ajoy; Kumar, Rajesh; Kumar, Rajendra; Devakumar; Indian Journal of Chemistry - Section B Organic and Medicinal Chemistry; vol. 49; 4; (2010); p. 526 - 531;",https://www.reaxys.com/reaxys/secured/hopinto.do?context=C&query=CNR.CNR%3D8919469&database=RX&origin=ReaxysOutput&ln=
,CCC(N)=NO,605389.0,https://www.reaxys.com/reaxys/secured/hopinto.do?context=S&query=IDE.XRN%3D605389&database=RX&origin=ReaxysOutput&ln=,(1663 of 4000),29335-36-2,N-hydroxypropanimidamide; N'-hydroxypropionamidine; N'-hydroxypropionimidamide; Propanamidoxim,C2H5C(NH2)NOH,C3H8N2O,88.1093,acyclic,,RLZPCFQNZGINRP-UHFFFAOYSA-N,,,,Identification(18); Physical Data(9); Spectra(13),105.0,85.0,24 - 25,,,,,,"Article; Barrans; Annales de la Faculte des Sciences de l'Universite de Toulouse pour les Sciences Mathematiques et les Sciences Physiques; vol. 25; (1961); p. 7,8-96; Chem.Abstr.; vol. 60; 12004e; (1964);",https://www.reaxys.com/reaxys/secured/hopinto.do?context=C&query=CNR.CNR%3D2775548&database=RX&origin=ReaxysOutput&ln=
,CCOC(N)=N,635809.0,https://www.reaxys.com/reaxys/secured/hopinto.do?context=S&query=IDE.XRN%3D635809&database=RX&origin=ReaxysOutput&ln=,(1664 of 4000),28464-55-3,O-ethylisourea; O-Ethyl-isoharnstoff,C3H8N2O,C3H8N2O,88.1093,acyclic,,HEFJCHKCDAWHDQ-UHFFFAOYSA-N,,,,Identification(33); Physical Data(19); Spectra(1),61.0,65.0,42,,,,,,"Article; Giorgetti,J.-P.; Bulletin de la Societe Chimique de France; 10; (1971); p. 3600 - 3603;; ; Article; Stieglitz; Mc Kee; Chemische Berichte; vol. 33; (1900); p. 1517;; ; Article; Piasek; Urbanski; Bulletin de l'Academie Polonaise des Sciences, Serie des Sciences Chimiques; vol. 10; (1962); p. 341;",https://www.reaxys.com/reaxys/secured/hopinto.do?context=C&query=CNR.CNR%3D121004&database=RX&origin=ReaxysOutput&ln=
,CC(N)C(N)=O,969406.0,https://www.reaxys.com/reaxys/secured/hopinto.do?context=S&query=IDE.XRN%3D969406&database=RX&origin=ReaxysOutput&ln=,(1665 of 4000),4726-84-5,alanine amide; 2-aminopropanamide; DL-alaninamide; D-α-aminopropionamide,H2NCH(CH3)CONH2,C3H8N2O,88.1093,acyclic,,HQMLIDZJXVVKCW-UHFFFAOYSA-N,,,,Identification(36); Physical Data(9); Spectra(10),116.0,102.0,112 - 114,,supporting information,,,,"Article; Zhang, Min; Imm, Sebastian; Baehn, Sebastian; Neumann, Helfried; Beller, Matthias; Angewandte Chemie - International Edition; vol. 50; 47; (2011); p. 11197 - 11201;",https://www.reaxys.com/reaxys/secured/hopinto.do?context=C&query=CNR.CNR%3D20070085&database=RX&origin=ReaxysOutput&ln=
,CNNC(C)=O,1071332.0,https://www.reaxys.com/reaxys/secured/hopinto.do?context=S&query=IDE.XRN%3D1071332&database=RX&origin=ReaxysOutput&ln=,(1666 of 4000),29817-35-4,1-acetyl-2-methylhydrazine; N-acetyl-N'-methylhydrazine; N'-methylacetohydrazide; acetic acid N'-methylhydrazide,C3H8N2O,C3H8N2O,88.1093,acyclic,,OMMMMWZZJZZMLV-UHFFFAOYSA-N,,,,Identification(24); Physical Data(5); Spectra(10),44.0,28.0,38 - 42,,,,,,"Article; Condon; Journal of Organic Chemistry; vol. 37; (1972); p. 3608,3609-3615;",https://www.reaxys.com/reaxys/secured/hopinto.do?context=C&query=CNR.CNR%3D3966313&database=RX&origin=ReaxysOutput&ln=
,CNCC(N)=O,1699439.0,https://www.reaxys.com/reaxys/secured/hopinto.do?context=S&query=IDE.XRN%3D1699439&database=RX&origin=ReaxysOutput&ln=,(1667 of 4000),6250-76-6,sarcosinamide; 2-(methylamino)acetamide; N-methyl glycinamide; sarcosine amide,C3H8N2O,C3H8N2O,88.1093,acyclic,,CBBFWSMELCDMPZ-UHFFFAOYSA-N,,,,Identification(22); Physical Data(9); Spectra(6); Bioactivity(6),38.0,56.0,67 - 69,,,,,,"Article; Mulliez,M.; Wakselman,M.; Synthesis; (1977); p. 478 - 480;",https://www.reaxys.com/reaxys/secured/hopinto.do?context=C&query=CNR.CNR%3D209329&database=RX&origin=ReaxysOutput&ln=
,NCCC(N)=O,1699520.0,https://www.reaxys.com/reaxys/secured/hopinto.do?context=S&query=IDE.XRN%3D1699520&database=RX&origin=ReaxysOutput&ln=,(1668 of 4000),4726-85-6,β-alaninamide; 3-aminopropanamide; 3-aminopropionamide; β-aminopropionamide,NH2(CONH2)(CH2)2,C3H8N2O,88.1093,acyclic,,RSDOASZYYCOXIB-UHFFFAOYSA-N,,,,Identification(119); Physical Data(7); Spectra(10); Bioactivity(1),138.0,193.0,150 - 152,,,,,,"Article; Tamura, Masahiro; Jacyno, John; Stammer, Charles H.; Tetrahedron Letters; vol. 27; 45; (1986); p. 5435 - 5436;",https://www.reaxys.com/reaxys/secured/hopinto.do?context=C&query=CNR.CNR%3D5548790&database=RX&origin=ReaxysOutput&ln=
,[H][C@@](C)(N)C(N)=O,1720240.0,https://www.reaxys.com/reaxys/secured/hopinto.do?context=S&query=IDE.XRN%3D1720240&database=RX&origin=ReaxysOutput&ln=,(1669 of 4000),7324-05-2,Ala-NH2; L-alanine amide,H2NCH(CH3)CONH2,C3H8N2O,88.1093,acyclic,,HQMLIDZJXVVKCW-REOHCLBHSA-N,,,,Identification(160); Physical Data(21); Spectra(21); Bioactivity(19),170.0,263.0,132 - 134,,,,,,"Article; Cardenal, Carmen; Vollrath, Sidonie B. L.; Schepers, Ute; Bräse, Stefan; Helvetica Chimica Acta; vol. 95; 11; (2012); p. 2237 - 2248;",https://www.reaxys.com/reaxys/secured/hopinto.do?context=C&query=CNR.CNR%3D35447985&database=RX&origin=ReaxysOutput&ln=
,CN(C)NC=O,1737958.0,https://www.reaxys.com/reaxys/secured/hopinto.do?context=S&query=IDE.XRN%3D1737958&database=RX&origin=ReaxysOutput&ln=,(1670 of 4000),3298-49-5,"N,N-Dimethyl-N'-formyl-hydrazin; 1-formyl-2,2-dimethylhydrazine; dimethylamino formamide; formic acid N',N'-dimethylhydrazide",C3H8N2O,C3H8N2O,88.1093,acyclic,,ALTGURJQVWBILJ-UHFFFAOYSA-N,,,,Identification(23); Physical Data(20); Spectra(12),27.0,29.0,59 - 61,,supporting information,,,,"Article; Golubev, Pavel; Krasavin, Mikhail; Tetrahedron Letters; vol. 59; 39; (2018); p. 3532 - 3536;",https://www.reaxys.com/reaxys/secured/hopinto.do?context=C&query=CNR.CNR%3D74703720&database=RX&origin=ReaxysOutput&ln=
,CN(N)C(C)=O,1740469.0,https://www.reaxys.com/reaxys/secured/hopinto.do?context=S&query=IDE.XRN%3D1740469&database=RX&origin=ReaxysOutput&ln=,(1671 of 4000),3530-13-0,N-methylacetohydrazide; 1-acetyl-1-methyl hydrazine; 1-Acetyl-1-methylhydrazin; 1-Methyl-1-acetylhydrazin,C3H8N2O,C3H8N2O,88.1093,acyclic,,XDIIJQFNVMXIJQ-UHFFFAOYSA-N,,,,Identification(28); Physical Data(18); Spectra(6),63.0,43.0,17 - 20,,,,,,"Article; Brosse, Nicolas; Pinto, Maria-Fatima; Jamart-Gregoire, Brigitte; Journal of Organic Chemistry; vol. 65; 14; (2000); p. 4370 - 4374;",https://www.reaxys.com/reaxys/secured/hopinto.do?context=C&query=CNR.CNR%3D6276275&database=RX&origin=ReaxysOutput&ln=