Structure: Image,SMILES,Substance Identification: Reaxys Registry Number,Links to Reaxys,Data Count,CAS Registry Number,Chemical Name,Linear Structure Formula,Molecular Formula,Molecular Weight,Type of Substance,Type and Modification,InChI Key,Composition: Comp. Name,Composition: Comp. Conc.,Composition: Comp. Attrib.,Field Availability,Number of Reactions,Number of References,Melting Point: Melting Point [C],Solvent (Melting Point),Location,Comment (Melting Point),Crystallizes With,Amount (Melting Point) [mol],References,Links to Reaxys.1
,CCC\C=C\C,1719020.0,https://www.reaxys.com/reaxys/secured/hopinto.do?context=S&query=IDE.XRN%3D1719020&database=RX&origin=ReaxysOutput&ln=,(1269 of 4000),4050-45-7,hex-2-ene; trans-2-hexene,CH3CH2CH2CHCHCH3,C6H12,84.1613,acyclic,,RYPKRALMXUUNKS-HWKANZROSA-N,,,,Identification(636); Physical Data(96); Spectra(51); Bioactivity(53),319.0,1025.0,-141.12,,,,,,"Article; Messerly, J. F.; Todd, S. S.; Finke, H. L.; Lee-Bechtold, S. H.; Guthrie, G. B.; et al.; Journal of Chemical Thermodynamics; vol. 22; 11; (1990); p. 1107 - 1128;",https://www.reaxys.com/reaxys/secured/hopinto.do?context=C&query=CNR.CNR%3D5519564&database=RX&origin=ReaxysOutput&ln=
,CCC(C)C=C,1719110.0,https://www.reaxys.com/reaxys/secured/hopinto.do?context=S&query=IDE.XRN%3D1719110&database=RX&origin=ReaxysOutput&ln=,(1270 of 4000),760-20-3,3-methyl-1-pentene; 3-methylpent-1-ene; 3-methylpentene; trans-3-methylpentene,CH2CHCH(CH3)CH2CH3,C6H12,84.1613,acyclic,,LDTAOIUHUHHCMU-UHFFFAOYSA-N,,,,Identification(119); Physical Data(63); Spectra(21),120.0,308.0,-154.55,,,,,,Article; Boord et al.; Industrial and Engineering Chemistry; vol. 41; (1949); p. 615;,https://www.reaxys.com/reaxys/secured/hopinto.do?context=C&query=CNR.CNR%3D1337906&database=RX&origin=ReaxysOutput&ln=
,C\C=C/C(C)C,1719114.0,https://www.reaxys.com/reaxys/secured/hopinto.do?context=S&query=IDE.XRN%3D1719114&database=RX&origin=ReaxysOutput&ln=,(1271 of 4000),691-38-3,(Z)-4-methyl-2-pentene; cis-4-methyl-2-pentene; (Z)-4-methylpent-2-ene; 4-Methyl-cis-2-pentene,C6H12,C6H12,84.1613,acyclic,,LGAQJENWWYGFSN-PLNGDYQASA-N,,,,Identification(51); Physical Data(42); Spectra(19),204.0,283.0,-134.43,,,,,,"Report; Rossini; Selected values of chemical thermodynamic properties;; ; Article; Streiff et al.; Journal of Research of the National Bureau of Standards (United States); vol. 45; (1950); p. 173,176;",https://www.reaxys.com/reaxys/secured/hopinto.do?context=C&query=CNR.CNR%3D1346274&database=RX&origin=ReaxysOutput&ln=
,C\C=C\C(C)C,1719115.0,https://www.reaxys.com/reaxys/secured/hopinto.do?context=S&query=IDE.XRN%3D1719115&database=RX&origin=ReaxysOutput&ln=,(1272 of 4000),674-76-0,"(E)-4-methylpent-2-ene; trans-4-methyl-2-pentene; (E)-4-methyl-2-pentene; 1,3-dimethyl-1-butene",CH3CHCHCH(CH3)2,C6H12,84.1613,acyclic,,LGAQJENWWYGFSN-SNAWJCMRSA-N,,,,Identification(104); Physical Data(49); Spectra(19),198.0,348.0,-140.81,,,,,,"Report; Rossini; Selected values of chemical thermodynamic properties;; ; Article; Streiff et al.; Journal of Research of the National Bureau of Standards (United States); vol. 45; (1950); p. 173,176;",https://www.reaxys.com/reaxys/secured/hopinto.do?context=C&query=CNR.CNR%3D1346274&database=RX&origin=ReaxysOutput&ln=
,CC(C)CC=C,1731096.0,https://www.reaxys.com/reaxys/secured/hopinto.do?context=S&query=IDE.XRN%3D1731096&database=RX&origin=ReaxysOutput&ln=,(1273 of 4000),691-37-2,4-Methyl-1-pentene; 4-methylpentene,(CH3)2CHCH2CHCH2,C6H12,84.1613,acyclic,,WSSSPWUEQFSQQG-UHFFFAOYSA-N,,,,Identification(455); Physical Data(87); Spectra(36),608.0,973.0,-153.63,,,Schmelzpunkt einer stabilen Form.,,,"Article; Streiff et al.; Journal of Research of the National Bureau of Standards (United States); vol. 45; (1950); p. 173,176;",https://www.reaxys.com/reaxys/secured/hopinto.do?context=C&query=CNR.CNR%3D1693365&database=RX&origin=ReaxysOutput&ln=
,CC1CC1(C)C,1900203.0,https://www.reaxys.com/reaxys/secured/hopinto.do?context=S&query=IDE.XRN%3D1900203&database=RX&origin=ReaxysOutput&ln=,(1274 of 4000),4127-45-1,"1,1,2-trimethylcyclopropane; 1,1,2-Trimethyl-cyclopropan",C3H3(CH3)3,C6H12,84.1613,isocyclic,,BXIIJPAVISPOGI-UHFFFAOYSA-N,,,,Identification(37); Physical Data(44); Spectra(14),70.0,93.0,-138.3,,,,,,"Article; Kelso et al.; Journal of the American Chemical Society; vol. 74; (1952); p. 287,292;",https://www.reaxys.com/reaxys/secured/hopinto.do?context=C&query=CNR.CNR%3D1397493&database=RX&origin=ReaxysOutput&ln=
,CCC1(C)CC1,1900206.0,https://www.reaxys.com/reaxys/secured/hopinto.do?context=S&query=IDE.XRN%3D1900206&database=RX&origin=ReaxysOutput&ln=,(1275 of 4000),53778-43-1,1-Methyl-1-ethyl-cyclopropan; 1-Methyl-1-ethylcyclopropane; (+/-)-1-Ethyl-1-methyl-cyclopropan,(CH3)(C2H5)CCH2CH2,C6H12,84.1613,isocyclic,,CXYUCHDVLWUDNS-UHFFFAOYSA-N,,,,Identification(10); Physical Data(7); Spectra(10),12.0,16.0,-130.23,,,,,,Article; Derfer; Greenlee; Boord; Journal of the American Chemical Society; vol. 71; (1949); p. 180;,https://www.reaxys.com/reaxys/secured/hopinto.do?context=C&query=CNR.CNR%3D1337411&database=RX&origin=ReaxysOutput&ln=
,CC(C)C1CC1,1900207.0,https://www.reaxys.com/reaxys/secured/hopinto.do?context=S&query=IDE.XRN%3D1900207&database=RX&origin=ReaxysOutput&ln=,(1276 of 4000),3638-35-5,2-cyclopropylpropane; i-propylcyclopropane; isopropyl-cyclopropane; Isopropyl-cyclopropan; (1-methylethyl)-cyclopropane,(CH3)2CHC3H5,C6H12,84.1613,isocyclic,,HPBROFGYTXOJIO-UHFFFAOYSA-N,,,,Identification(16); Physical Data(23); Spectra(13),33.0,44.0,58.4,,,,,,"Article; Kasanskii et al.; Izvestiya Akademii Nauk SSSR, Seriya Khimicheskaya; (1956); p. 1102,1104; engl. Ausg. S. 1119, 1120;",https://www.reaxys.com/reaxys/secured/hopinto.do?context=C&query=CNR.CNR%3D1731975&database=RX&origin=ReaxysOutput&ln=
,CC1CCCC1,1900214.0,https://www.reaxys.com/reaxys/secured/hopinto.do?context=S&query=IDE.XRN%3D1900214&database=RX&origin=ReaxysOutput&ln=,(1277 of 4000),96-37-7,methyl-cyclopentane; MCP; 1-methylcyclopentane; IDX-19370,(CH2)4CHCH3,C6H12,84.1613,isocyclic,,GDOPTJXRTPNYNR-UHFFFAOYSA-N,,,,Identification(1507); Physical Data(446); Spectra(41); Bioactivity(128),535.0,2483.0,-142.47,,,,,,Article; Forziati et al.; Journal of Research of the National Bureau of Standards (United States); vol. 36; (1946); p. 133; Chem.Abstr.; (1946); p. 4343;; ; Article; Rossini; Selected values of physical and thermodynamic properties of hydrocarbons and related compounds; (1953); p. 45;,https://www.reaxys.com/reaxys/secured/hopinto.do?context=C&query=CNR.CNR%3D1336870&database=RX&origin=ReaxysOutput&ln=
,CCC1CCC1,1900220.0,https://www.reaxys.com/reaxys/secured/hopinto.do?context=S&query=IDE.XRN%3D1900220&database=RX&origin=ReaxysOutput&ln=,(1278 of 4000),4806-61-5,ethylcyclobutane; Ethylcyclobutan; Aethyl-cyclobutan,C6H12,C6H12,84.1613,isocyclic,,NEZRFXZYPAIZAD-UHFFFAOYSA-N,,,,Identification(34); Physical Data(35); Spectra(24),24.0,62.0,-142.85,,,,,,Article; Derfer; Greenlee; Boord; Journal of the American Chemical Society; vol. 71; (1949); p. 180;,https://www.reaxys.com/reaxys/secured/hopinto.do?context=C&query=CNR.CNR%3D1337411&database=RX&origin=ReaxysOutput&ln=
,C1CCCCC1,1900225.0,https://www.reaxys.com/reaxys/secured/hopinto.do?context=S&query=IDE.XRN%3D1900225&database=RX&origin=ReaxysOutput&ln=,(1279 of 4000),110-82-7,cyclohexane; c-hexane,CH2CH2CH2CH2CH2CH2,C6H12,84.1613,isocyclic,,XDTMQSROBMDMFD-UHFFFAOYSA-N,,,,Identification(4015); Physical Data(5630); Spectra(281); Bioactivity(756),5949.0,13850.0,62 - 65,,supporting information,,,,"Article; McKeever, Caitriona; Kaiser, Marcel; Rozas, Isabel; Journal of Medicinal Chemistry; vol. 56; 3; (2013); p. 700 - 711;",https://www.reaxys.com/reaxys/secured/hopinto.do?context=C&query=CNR.CNR%3D35466778&database=RX&origin=ReaxysOutput&ln=
,C[C@@H]1CC[C@H]1C,3124425.0,https://www.reaxys.com/reaxys/secured/hopinto.do?context=S&query=IDE.XRN%3D3124425&database=RX&origin=ReaxysOutput&ln=,(1280 of 4000),15679-02-4,"trans-1,2-dimethylcyclobutane",C6H12,C6H12,84.1613,isocyclic,racemate,IVAGOJQDJFWIRT-PHDIDXHHSA-N,,,,Identification(7); Physical Data(4); Spectra(3),3.0,7.0,-122.5,,,,,,Article; Kasanskii; Lukina; Doklady Akademii Nauk SSSR; vol. 94; (1954); p. 887; Chem.Abstr.; (1955); p. 3030;,https://www.reaxys.com/reaxys/secured/hopinto.do?context=C&query=CNR.CNR%3D1731955&database=RX&origin=ReaxysOutput&ln=
,[H].[H].[H].[H].[H].[H].C.C.C.C.C.C,11657756.0,https://www.reaxys.com/reaxys/secured/hopinto.do?context=S&query=IDE.XRN%3D11657756&database=RX&origin=ReaxysOutput&ln=,(1281 of 4000),,cyclohexane,C6H12,C6H12,84.1613,,,GMWOELXAQDOOJO-UHFFFAOYSA-N,,,,Identification(8); Physical Data(7); Spectra(6),21.0,65.0,71 - 73,,,,,,Patent; H. LUNDBECK A/S; US2003/138376; (2003); A1;,https://www.reaxys.com/reaxys/secured/hopinto.do?context=C&query=CNR.CNR%3D220940&database=RX&origin=ReaxysOutput&ln=
,C[Be]C.CNC,3669420.0,https://www.reaxys.com/reaxys/secured/hopinto.do?context=S&query=IDE.XRN%3D3669420&database=RX&origin=ReaxysOutput&ln=,(1282 of 4000),,dimethyl-beryllium; compound with dimethylamine; Dimethyl-beryllium; Verbindung mit Dimethylamin,C2H7N*C2H6Be,C2H6Be*C2H7N,84.1661,acyclic,,HXYHQYYUCVUVFE-UHFFFAOYSA-N,,,,Identification(7); Physical Data(1),,1.0,44,,,Decomp.,,,Article; Coates; Glockling; Huck; Journal of the Chemical Society; (1952); p. 4500;,https://www.reaxys.com/reaxys/secured/hopinto.do?context=C&query=CNR.CNR%3D1252027&database=RX&origin=ReaxysOutput&ln=
,ClC#CC#C,1839647.0,https://www.reaxys.com/reaxys/secured/hopinto.do?context=S&query=IDE.XRN%3D1839647&database=RX&origin=ReaxysOutput&ln=,(1284 of 4000),6089-44-7,Chlordiacetylen; Monochlor-diacetylen,C4HCl,C4HCl,84.5049,acyclic,,ZKDGPGUPUPETAQ-UHFFFAOYSA-N,,,,Identification(12); Physical Data(6); Spectra(5),1.0,14.0,-41,,,,,,"Article; Kloster-Jensen; Tetrahedron; vol. 22; (1966); p. 965,970,971;",https://www.reaxys.com/reaxys/secured/hopinto.do?context=C&query=CNR.CNR%3D3793908&database=RX&origin=ReaxysOutput&ln=
,Cl[H].[2H]C([2H])([2H])NC,5046587.0,https://www.reaxys.com/reaxys/secured/hopinto.do?context=S&query=IDE.XRN%3D5046587&database=RX&origin=ReaxysOutput&ln=,(1285 of 4000),120033-84-3,dimethylamine-d3 hydrochloride; methyl(trideuteriomethyl)amine hydrochloride; N-methyl-N-(methyl-d3)amine hydrochloride,C2H4(2)H3N*HCl,C2H7N*ClH,84.5214,acyclic,,IQDGSYLLQPDQDV-NIIDSAIPSA-N,,,,Identification(5); Physical Data(1),8.0,4.0,170 - 172,,,,,,"Article; Hall, Larry R.; Iwamoto, Reynold T.; Hanzlik, Robert P.; Journal of Organic Chemistry; vol. 54; 10; (1989); p. 2446 - 2451;",https://www.reaxys.com/reaxys/secured/hopinto.do?context=C&query=CNR.CNR%3D5639991&database=RX&origin=ReaxysOutput&ln=
,Cl[SH]=O,13319973.0,https://www.reaxys.com/reaxys/secured/hopinto.do?context=S&query=IDE.XRN%3D13319973&database=RX&origin=ReaxysOutput&ln=,(1286 of 4000),,chlorosulfoxide; sulfoxide chloride; chlorosulphoxide,ClS(H)O,ClHOS,84.5263,,,IGHJAWHWAXYBDH-UHFFFAOYSA-N,,,,Identification(49); Physical Data(1),9.0,49.0,135 - 140,,,,,,Patent; GLAXOSMITHKLINE PLC; US4223038; (1980); A;,https://www.reaxys.com/reaxys/secured/hopinto.do?context=C&query=CNR.CNR%3D7084967&database=RX&origin=ReaxysOutput&ln=
,[H]N([H])[H].FB(F)F,16470511.0,https://www.reaxys.com/reaxys/secured/hopinto.do?context=S&query=IDE.XRN%3D16470511&database=RX&origin=ReaxysOutput&ln=,(1289 of 4000),1092538-47-0,boron trifluoride amine,BF3*NH3,BF3*H3N,84.8367,,,HPVJGAZWQLWNKJ-UHFFFAOYSA-N,,,,Identification(5); Physical Data(16); Spectra(3),33.0,47.0,162 - 164,,,with decomposition,,,"Article; Balz, G.; Zinser, W.; Zeitschrift fur anorganische Chemie; vol. 221; (1935); p. 225 - 248;; ; Article; Gmelin Handbuch der Anorganischen Chemie; vol. B: SVol.1; 4.4.4, page 177 - 187; (from Gmelin)",https://www.reaxys.com/reaxys/secured/hopinto.do?context=C&query=CNR.CNR%3D7198463&database=RX&origin=ReaxysOutput&ln=
,[H]B1OCCN1C,969270.0,https://www.reaxys.com/reaxys/secured/hopinto.do?context=S&query=IDE.XRN%3D969270&database=RX&origin=ReaxysOutput&ln=,(1290 of 4000),37479-91-7,"3-Methyl-1,3,2-oxazaborolan; 3-methyl-1,3,2-oxazaborolane; N-methyl-oxaborolidine; 3-methyl-[1,3,2]oxazaborolidine",C2OBNH5(CH3),C3H8BNO,84.9136,heterocyclic,,JTUZEDIVSMFCEO-UHFFFAOYSA-N,,,,Identification(8); Physical Data(3); Spectra(2),2.0,4.0,69 - 74,,,,,,"Article; Niedenzu,K. et al.; Chemische Berichte; vol. 105; (1972); p. 2258 - 2263;",https://www.reaxys.com/reaxys/secured/hopinto.do?context=C&query=CNR.CNR%3D41404&database=RX&origin=ReaxysOutput&ln=
,ClCCl,1730800.0,https://www.reaxys.com/reaxys/secured/hopinto.do?context=S&query=IDE.XRN%3D1730800&database=RX&origin=ReaxysOutput&ln=,(1291 of 4000),75-09-2,dichloromethane; methylene Dichloride; methylene chloride,ClCH2Cl,CH2Cl2,84.9329,acyclic,,YMWUJEATGCHHMB-UHFFFAOYSA-N,,,,Identification(5089); Physical Data(1560); Spectra(302); Bioactivity(1050),18927.0,17501.0,-97,,Paragraph 0156,,,,Patent; TONIX PHARMACEUTICALS HOLDING CORP.; WO2020/194058; (2020); A1;,https://www.reaxys.com/reaxys/secured/hopinto.do?context=C&query=CNR.CNR%3D81155833&database=RX&origin=ReaxysOutput&ln=
,[H]B([H])N(CC)CC,1731364.0,https://www.reaxys.com/reaxys/secured/hopinto.do?context=S&query=IDE.XRN%3D1731364&database=RX&origin=ReaxysOutput&ln=,(1292 of 4000),18494-92-3,(diethylamino)borane; Diethylamino-boran,BH2N(CH2CH3)2,C4H12BN,84.957,acyclic,,WQMPWRDPHQPZRG-UHFFFAOYSA-N,,,,Identification(16); Physical Data(10); Spectra(19),59.0,48.0,45,,,,,,"Article; Zhigach,A.F. et al.; Journal of general chemistry of the USSR; vol. 43; (1973); p. 1941 - 1945; Zhurnal Obshchei Khimii; vol. 43; (1973); p. 1958 - 1963;",https://www.reaxys.com/reaxys/secured/hopinto.do?context=C&query=CNR.CNR%3D269587&database=RX&origin=ReaxysOutput&ln=
,CB(C)N(C)C,1731482.0,https://www.reaxys.com/reaxys/secured/hopinto.do?context=S&query=IDE.XRN%3D1731482&database=RX&origin=ReaxysOutput&ln=,(1293 of 4000),1113-30-0,Tetramethylborazen; Dimethylamino-dimethyl-boran; Dimethyl-dimethylamino-boran; Tetramethylaminoboran,B(N(CH3)2)(CH3)2,C4H12BN,84.957,acyclic,,BUAGRGPXYOEKCF-UHFFFAOYSA-N,,,,Identification(12); Physical Data(57); Spectra(53),88.0,129.0,-92.2,,,,,,Article; Burg; Banus; Journal of the American Chemical Society; vol. 76; (1954); p. 3903;,https://www.reaxys.com/reaxys/secured/hopinto.do?context=C&query=CNR.CNR%3D1232220&database=RX&origin=ReaxysOutput&ln=
,CCB(N)CC,1846687.0,https://www.reaxys.com/reaxys/secured/hopinto.do?context=S&query=IDE.XRN%3D1846687&database=RX&origin=ReaxysOutput&ln=,(1294 of 4000),18483-79-9,Diethylaminoboran; Amino-diethyl-boran,(C2H5)2BNH2,C4H12BN,84.957,acyclic,,YWNYNHHYXJOUIH-UHFFFAOYSA-N,,,,Identification(8); Physical Data(13); Spectra(12); Bioactivity(3),11.0,22.0,5 - 6,,,Method: distilled sample,,,"Article; Koester,R. et al.; Justus Liebigs Annalen der Chemie; vol. 644; (1961); p. 1 - 22;",https://www.reaxys.com/reaxys/secured/hopinto.do?context=C&query=CNR.CNR%3D77081&database=RX&origin=ReaxysOutput&ln=
,[H][B-]1([H])C[N+](C)(C)C1,3929073.0,https://www.reaxys.com/reaxys/secured/hopinto.do?context=S&query=IDE.XRN%3D3929073&database=RX&origin=ReaxysOutput&ln=,(1295 of 4000),71371-27-2,"1,1-Dimethyl-1,3-azoniaboratacyclobutan; 1,1-dimethyl-1,3-azoniaboratacyclobutane; (2,2-dimethyl-2-aza-propanium-1,3-diyl)-dihydrido-boron; 1,1-dimethyl-[1,3]azaboretidinium-3-uide",BH2(CH2)2N(CH3)2,C4H12BN,84.957,heterocyclic; Coordination compound,,VYHLNMNWHZULGW-UHFFFAOYSA-N,,,,Identification(6); Physical Data(1); Spectra(3),2.0,2.0,88.5 - 89.5,,,,,,"Note; Warnock, Garry F.; Miller, Norman E.; Inorganic Chemistry; vol. 18; 12; (1979); p. 3620 - 3622;",https://www.reaxys.com/reaxys/secured/hopinto.do?context=C&query=CNR.CNR%3D3087111&database=RX&origin=ReaxysOutput&ln=
,[H]B([H])[H].C1CCNC1,8850830.0,https://www.reaxys.com/reaxys/secured/hopinto.do?context=S&query=IDE.XRN%3D8850830&database=RX&origin=ReaxysOutput&ln=,(1296 of 4000),,pyrrolidine-borane,HNC4H8*BH3,BH3*C4H9N,84.957,heterocyclic; Coordination compound,,JSDQWZROJHDPDJ-UHFFFAOYSA-N,,,,Identification(8); Physical Data(3); Spectra(11),17.0,13.0,31 - 35,,,,,,"Article; Jaska, Cory A.; Temple, Karen; Lough, Alan J.; Manners, Ian; Journal of the American Chemical Society; vol. 125; 31; (2003); p. 9424 - 9434;",https://www.reaxys.com/reaxys/secured/hopinto.do?context=C&query=CNR.CNR%3D6412552&database=RX&origin=ReaxysOutput&ln=
,NC(F)(F)F,1846877.0,https://www.reaxys.com/reaxys/secured/hopinto.do?context=S&query=IDE.XRN%3D1846877&database=RX&origin=ReaxysOutput&ln=,(1301 of 4000),61165-75-1,Trifluormethylamin; perfluoromethylamine,CF3NH2,CH2F3N,85.0288,acyclic,,MYMLGBAVNHFRJS-UHFFFAOYSA-N,,,,Identification(15); Physical Data(6); Spectra(8),15.0,21.0,-21,,,Decomposition,,,"Article; Kloeter,G.; Seppelt,K.; Journal of the American Chemical Society; vol. 101; (1979); p. 347 - 349;",https://www.reaxys.com/reaxys/secured/hopinto.do?context=C&query=CNR.CNR%3D74433&database=RX&origin=ReaxysOutput&ln=
,[Na+].[O-]S#N,16941141.0,https://www.reaxys.com/reaxys/secured/hopinto.do?context=S&query=IDE.XRN%3D16941141&database=RX&origin=ReaxysOutput&ln=,(1303 of 4000),128755-80-6,,Na(1+)*NSO(1-)=NaNSO,NOS*Na,85.0619,,,MJQHLDGCRRVVRC-UHFFFAOYSA-N,,,,Identification(5); Physical Data(8); Spectra(1),4.0,6.0,174,,,,,,"Article; Mann, S.; Jansen, M.; Zeitschrift fur Anorganische und Allgemeine Chemie; Zeitschrift fuer Anorganische und Allgemeine Chemie; vol. 621; (1995); p. 153 - 158; (from Gmelin)",https://www.reaxys.com/reaxys/secured/hopinto.do?context=C&query=CNR.CNR%3D8242174&database=RX&origin=ReaxysOutput&ln=
,OC(=O)CC#N,506325.0,https://www.reaxys.com/reaxys/secured/hopinto.do?context=S&query=IDE.XRN%3D506325&database=RX&origin=ReaxysOutput&ln=,(1304 of 4000),372-09-8,cyanoacetic acid,NCCH2CO2H,C3H3NO2,85.0623,acyclic,,MLIREBYILWEBDM-UHFFFAOYSA-N,,,,Identification(984); Physical Data(124); Spectra(52); Bioactivity(215),6725.0,4267.0,66,,,,,,Article; Ahmad; Synthesis; (1976); p. 418;; ; Patent; LONZA GROUP AG; CH359694; (1957); A; Chem.Abstr.; vol. 60; 2776f; (1964); Chem.Abstr.; vol. 60; 2776f; (1964);,https://www.reaxys.com/reaxys/secured/hopinto.do?context=C&query=CNR.CNR%3D2517363&database=RX&origin=ReaxysOutput&ln=
,O=C1CC=NO1,506769.0,https://www.reaxys.com/reaxys/secured/hopinto.do?context=S&query=IDE.XRN%3D506769&database=RX&origin=ReaxysOutput&ln=,(1305 of 4000),1072-48-6,Δ2-Isoxazolin-5-on; Isoxazolon-(5),C3H3NO2,C3H3NO2,85.0623,heterocyclic,,QBWUTXXJFOIVME-UHFFFAOYSA-N,,,,Identification(37); Physical Data(5); Spectra(4),6.0,30.0,67 - 69,,,,,,"Article; De Sarlo,F. et al.; Journal of the Chemical Society C: Organic; (1971); p. 86 - 89;",https://www.reaxys.com/reaxys/secured/hopinto.do?context=C&query=CNR.CNR%3D198802&database=RX&origin=ReaxysOutput&ln=
,OC1=NOC=C1,506861.0,https://www.reaxys.com/reaxys/secured/hopinto.do?context=S&query=IDE.XRN%3D506861&database=RX&origin=ReaxysOutput&ln=,(1306 of 4000),5777-20-8,isoxazol-3-ol; 3-hydroxy-isoxazole,C3H3O2N,C3H3NO2,85.0623,heterocyclic,,FUOSTELFLYZQCW-UHFFFAOYSA-N,,,,Identification(41); Physical Data(14); Spectra(18); Bioactivity(1),87.0,91.0,98 - 99,,,,,,"Patent; DAIICHI SANKYO COMPANY, LIMITED; DE1918253; (1970); A1; Chem.Abstr.; vol. 73; 130984; Chem.Abstr.; vol. 73; 130984;; ; Patent; DAIICHI SANKYO COMPANY, LIMITED; NL6511925; (1964); A; Chem.Abstr.; vol. 65; 16974h; (1966); Chem.Abstr.; vol. 65; 16974h; (1966);; ; Patent; DAIICHI SANKYO COMPANY, LIMITED; NL6516871; (1964); A; Chem.Abstr.; vol. 65; 15383c; (1966); Chem.Abstr.; vol. 65; 15383c; (1966);; ; Article; Frydenvang, Karla; Matzen, Lisa; Norrby, Per-Ola; Slok, Frank A.; Liljefors, Tommy; Krogsgaard-Larsen, Povl; Jaroszewski, Jerzy W.; Journal of the Chemical Society. Perkin Transactions 2 (2001); 9; (1997); p. 1783 - 1791;",https://www.reaxys.com/reaxys/secured/hopinto.do?context=C&query=CNR.CNR%3D2746498&database=RX&origin=ReaxysOutput&ln=