Structure: Image,SMILES,Substance Identification: Reaxys Registry Number,Links to Reaxys,Data Count,CAS Registry Number,Chemical Name,Linear Structure Formula,Molecular Formula,Molecular Weight,Type of Substance,Type and Modification,InChI Key,Composition: Comp. Name,Composition: Comp. Conc.,Composition: Comp. Attrib.,Field Availability,Number of Reactions,Number of References,Melting Point: Melting Point [C],Solvent (Melting Point),Location,Comment (Melting Point),Crystallizes With,Amount (Melting Point) [mol],References,Links to Reaxys.1
,CCNC,1730786.0,https://www.reaxys.com/reaxys/secured/hopinto.do?context=S&query=IDE.XRN%3D1730786&database=RX&origin=ReaxysOutput&ln=,(303 of 4000),624-78-2,N-Ethylmethylamine; N-methylethanamine,C2H5NHCH3,C3H9N,59.1112,acyclic,,LIWAQLJGPBVORC-UHFFFAOYSA-N,,,,Identification(228); Physical Data(37); Spectra(29),1184.0,1125.0,60 - 63,,,,,,Patent; PFIZER INC; US4209528; (1980); A;,https://www.reaxys.com/reaxys/secured/hopinto.do?context=C&query=CNR.CNR%3D33738&database=RX&origin=ReaxysOutput&ln=
,CB(O)O,1731087.0,https://www.reaxys.com/reaxys/secured/hopinto.do?context=S&query=IDE.XRN%3D1731087&database=RX&origin=ReaxysOutput&ln=,(305 of 4000),13061-96-6,dihydroxy-methyl-borane; Dihydroxy-methyl-boran,(CH3)B(OH)2,CH5BO2,59.8605,acyclic,,KTMKRRPZPWUYKK-UHFFFAOYSA-N,,,,Identification(229); Physical Data(37); Spectra(26); Bioactivity(76),1884.0,1460.0,89 - 94,,,,,,"Article; Wang, Shuao; Alekseev, Evgeny V.; Miller, Hannah M.; Depmeier, Wulf; Albrecht-Schmitt, Thomas E.; Inorganic Chemistry; vol. 49; 21; (2010); p. 9755 - 9757;",https://www.reaxys.com/reaxys/secured/hopinto.do?context=C&query=CNR.CNR%3D8964293&database=RX&origin=ReaxysOutput&ln=
,CB(C)F,1730815.0,https://www.reaxys.com/reaxys/secured/hopinto.do?context=S&query=IDE.XRN%3D1730815&database=RX&origin=ReaxysOutput&ln=,(306 of 4000),353-46-8,(dimethyl)fluoroborane; Dimethylborfluorid; Dimethylfluorboran,BF(CH3)2,C2H6BF,59.879,acyclic,,JHLZWFXOKRZQOT-UHFFFAOYSA-N,,,,Identification(11); Physical Data(26); Spectra(27),33.0,61.0,-147.3,,,,,,Article; Burg; Journal of the American Chemical Society; vol. 62; (1940); p. 2232;,https://www.reaxys.com/reaxys/secured/hopinto.do?context=C&query=CNR.CNR%3D1251783&database=RX&origin=ReaxysOutput&ln=
,[2H]O[2H].[2H]N([2H])[2H],17765349.0,https://www.reaxys.com/reaxys/secured/hopinto.do?context=S&query=IDE.XRN%3D17765349&database=RX&origin=ReaxysOutput&ln=,(307 of 4000),,ammonia dihydrate-D7,N(2)H3*2(2)H2O,.2(2)H2O*H3N,60.0055,Isotope or isotope containing compound,,VHUUQVKOLVNVRT-NSPFYZSMSA-N,,,,Identification(5); Physical Data(10),1.0,1.0,-97.16,,,,,,Article; Fortes; Wood; Brodholt; Alfredsson; Vocadlo; McGrady; Knight; Journal of Chemical Physics; vol. 119; 20; (2003); p. 10806 - 10813; (from Gmelin),https://www.reaxys.com/reaxys/secured/hopinto.do?context=C&query=CNR.CNR%3D6464800&database=RX&origin=ReaxysOutput&ln=
,CC(O)=O,506007.0,https://www.reaxys.com/reaxys/secured/hopinto.do?context=S&query=IDE.XRN%3D506007&database=RX&origin=ReaxysOutput&ln=,(308 of 4000),64-19-7,acetic acid; ethanoic acid,H3CCOOH,C2H4O2,60.0526,acyclic,,QTBSBXVTEAMEQO-UHFFFAOYSA-N,,,,Identification(11506); Physical Data(4672); Spectra(442); Bioactivity(3814),85080.0,64993.0,16.7,,,,,,Article; Faucon; Comptes Rendus Hebdomadaires des Seances de l'Academie des Sciences; vol. 148; (1909); p. 39;; ; Article; Ruedorff; Chemische Berichte; vol. 3; (1870); p. 390;; ; Article; Gordon; Reid; Journal of Physical Chemistry; vol. 26; (1922); p. 782;; ; Patent; AMGEN INC; WO2008/51363; (2008); A2;,https://www.reaxys.com/reaxys/secured/hopinto.do?context=C&query=CNR.CNR%3D1112958&database=RX&origin=ReaxysOutput&ln=
,OCC=O,506029.0,https://www.reaxys.com/reaxys/secured/hopinto.do?context=S&query=IDE.XRN%3D506029&database=RX&origin=ReaxysOutput&ln=,(309 of 4000),141-46-8,Glycolaldehyde; hydroxyethanal,HOCH2CHO,C2H4O2,60.0526,acyclic,,WGCNASOHLSPBMP-UHFFFAOYSA-N,,,,Identification(384); Physical Data(50); Spectra(56); Bioactivity(82),966.0,1156.0,97,,,,,,Patent; UNILEVER (PLC &amp; NV); US2009/111894; (2009); A1;,https://www.reaxys.com/reaxys/secured/hopinto.do?context=C&query=CNR.CNR%3D8731307&database=RX&origin=ReaxysOutput&ln=
,COC=O,1734623.0,https://www.reaxys.com/reaxys/secured/hopinto.do?context=S&query=IDE.XRN%3D1734623&database=RX&origin=ReaxysOutput&ln=,(310 of 4000),107-31-3,Methyl formate; methyl formiate,HC(O)OCH3,C2H4O2,60.0526,acyclic,,TZIHFWKZFHZASV-UHFFFAOYSA-N,,,,Identification(383); Physical Data(437); Spectra(205); Bioactivity(165),3044.0,3119.0,-99,,,,,,Article; Timmermans; Hennaut-Roland; Journal de Chimie Physique et de Physico-Chimie Biologique; vol. 27; (1930); p. 429;,https://www.reaxys.com/reaxys/secured/hopinto.do?context=C&query=CNR.CNR%3D1131004&database=RX&origin=ReaxysOutput&ln=
,O.C=C=O,14199541.0,https://www.reaxys.com/reaxys/secured/hopinto.do?context=S&query=IDE.XRN%3D14199541&database=RX&origin=ReaxysOutput&ln=,(311 of 4000),,CO2,C2H2O*H2O,C2H2O*H2O,60.0526,,,HKDNMKSZNAFAKR-UHFFFAOYSA-N,,,,Identification(8); Physical Data(3),30.0,59.0,170,,,,,,Patent; BASF SE; US4260559; (1981); A;,https://www.reaxys.com/reaxys/secured/hopinto.do?context=C&query=CNR.CNR%3D46555&database=RX&origin=ReaxysOutput&ln=
,NC(N)=O,635724.0,https://www.reaxys.com/reaxys/secured/hopinto.do?context=S&query=IDE.XRN%3D635724&database=RX&origin=ReaxysOutput&ln=,(313 of 4000),57-13-6,urea; Carbamid,H2NC(O)NH2,CH4N2O,60.0556,acyclic,,XSQUKJJJFZCRTK-UHFFFAOYSA-N,,,,Identification(3170); Physical Data(2053); Spectra(170); Bioactivity(1173),18516.0,15133.0,133,,,,,,"Article; Panshina, S. Yu.; Bakibaev; Malkov; Belykh; Zhumanov; Gorbin; Ponarin; Kotelnikov; Russian Journal of General Chemistry; vol. 91; 3; (2021); p. 379 - 382; Zh. Obshch. Khim.; vol. 91; 3; (2021); p. 412 - 416,5;",https://www.reaxys.com/reaxys/secured/hopinto.do?context=C&query=CNR.CNR%3D83926317&database=RX&origin=ReaxysOutput&ln=
,NNC=O,635759.0,https://www.reaxys.com/reaxys/secured/hopinto.do?context=S&query=IDE.XRN%3D635759&database=RX&origin=ReaxysOutput&ln=,(314 of 4000),624-84-0,formic acid hydrazide; formic hydrazid,CH4ON2,CH4N2O,60.0556,acyclic,,XZBIXDPGRMLSTC-UHFFFAOYSA-N,,,,Identification(147); Physical Data(35); Spectra(21); Bioactivity(43),1367.0,825.0,65 - 68,ethanol,,,,,"Article; Mostafa, Mohsen M.; Elaskalany, Abdelmonem H.; El-Kkholy, Doaa E.; Applied Organometallic Chemistry; vol. 34; 9; (2020);",https://www.reaxys.com/reaxys/secured/hopinto.do?context=C&query=CNR.CNR%3D80229728&database=RX&origin=ReaxysOutput&ln=
,NC(O)=N,773698.0,https://www.reaxys.com/reaxys/secured/hopinto.do?context=S&query=IDE.XRN%3D773698&database=RX&origin=ReaxysOutput&ln=,(315 of 4000),57-13-6,isourea; monohydroxyamidine; urea; pseudourea; n-hydroxyamidine; hydroxyamidine; ketoamidine,CH4N2O,CH4N2O,60.0556,acyclic,,XSQUKJJJFZCRTK-UHFFFAOYSA-N,,,,Identification(139); Physical Data(4); Spectra(2),12.0,153.0,128,,,,,,Patent; RECORDATI SPA; US4579845; (1986); A;,https://www.reaxys.com/reaxys/secured/hopinto.do?context=C&query=CNR.CNR%3D61186&database=RX&origin=ReaxysOutput&ln=
,NC=NO,1697945.0,https://www.reaxys.com/reaxys/secured/hopinto.do?context=S&query=IDE.XRN%3D1697945&database=RX&origin=ReaxysOutput&ln=,(316 of 4000),624-82-8,formamide oxime; formamidoxime,H2NCHNOH,CH4N2O,60.0556,acyclic,,IONSZLINWCGRRI-UHFFFAOYSA-N,,,,Identification(14); Physical Data(23); Spectra(7); Bioactivity(7),50.0,49.0,110 - 112,,,,,,"Article; Barrans; Annales de la Faculte des Sciences de l'Universite de Toulouse pour les Sciences Mathematiques et les Sciences Physiques; vol. 25; (1961); p. 7,8-96; Chem.Abstr.; vol. 60; 12004e; (1964);",https://www.reaxys.com/reaxys/secured/hopinto.do?context=C&query=CNR.CNR%3D2775548&database=RX&origin=ReaxysOutput&ln=
,N=C=O.[H]N([H])[H],3912428.0,https://www.reaxys.com/reaxys/secured/hopinto.do?context=S&query=IDE.XRN%3D3912428&database=RX&origin=ReaxysOutput&ln=,(317 of 4000),,Imino-methanone; compound with ammonia; ammonium cyanate,CHNO*H3N,CHNO*H3N,60.0556,acyclic,,LTIBQZLAXJMKEF-UHFFFAOYSA-N,,,,Identification(9); Physical Data(4); Spectra(2),28.0,57.0,88,,,Decomp.,,,Article; Walker; Hambly; Journal of the Chemical Society; vol. 67; (1895); p. 746;,https://www.reaxys.com/reaxys/secured/hopinto.do?context=C&query=CNR.CNR%3D1450594&database=RX&origin=ReaxysOutput&ln=
,[NH4+].[O-]C#N,14764837.0,https://www.reaxys.com/reaxys/secured/hopinto.do?context=S&query=IDE.XRN%3D14764837&database=RX&origin=ReaxysOutput&ln=,(318 of 4000),22981-32-4,ammonium cyanate,NH4(1+)*OCN(1-)=NH4OCN,CNO*H4N,60.0556,,,QYTOONVFPBUIJG-UHFFFAOYSA-N,,,,Identification(113); Physical Data(17); Spectra(5),57.0,223.0,80 - 90,,,,,,Letter; Dunitz; Harris; Johnston; Kariuki; MacLean; Psallidas; Schweizer; Tykwinski; Journal of the American Chemical Society; vol. 120; 50; (1998); p. 13274 - 13275; (from Gmelin),https://www.reaxys.com/reaxys/secured/hopinto.do?context=C&query=CNR.CNR%3D8112826&database=RX&origin=ReaxysOutput&ln=
,N\N=N\N,14633714.0,https://www.reaxys.com/reaxys/secured/hopinto.do?context=S&query=IDE.XRN%3D14633714&database=RX&origin=ReaxysOutput&ln=,(319 of 4000),54410-57-0,2-tetrazene; monoazo diamine,H2NNNNH2,H4N4,60.0586,,,MAZKAODOCXYDCM-UHFFFAOYSA-N,,,,Identification(9); Physical Data(9),3.0,12.0,129 - 130,,,,,,Patent; ELSICON INC; EP432735; (1991); A2;,https://www.reaxys.com/reaxys/secured/hopinto.do?context=C&query=CNR.CNR%3D5853&database=RX&origin=ReaxysOutput&ln=
,[NH4+].[N-]=[N+]=[N-],14644486.0,https://www.reaxys.com/reaxys/secured/hopinto.do?context=S&query=IDE.XRN%3D14644486&database=RX&origin=ReaxysOutput&ln=,(320 of 4000),,ammonium azide; Ammonium-azid,H4N(1+)*N3(1-),H4N*N3,60.0586,Isotope or isotope containing compound,,UAZDIGCOBKKMPU-UHFFFAOYSA-O,,,,Identification(76); Physical Data(58); Spectra(5); Bioactivity(13),106.0,234.0,160,,,,,,"Article; Curtius, Th.; Rissom, J.; Journal fur praktische Chemie (Leipzig 1954); vol. 58; 2; (1898); p. 272 - 275;; ; Article; Gmelin Handbuch der Anorganischen Chemie; vol. NH4: MVol.1; 2.6.1, page 80 - 85; (from Gmelin)",https://www.reaxys.com/reaxys/secured/hopinto.do?context=C&query=CNR.CNR%3D7308566&database=RX&origin=ReaxysOutput&ln=
,N[N](N)#N,15093855.0,https://www.reaxys.com/reaxys/secured/hopinto.do?context=S&query=IDE.XRN%3D15093855&database=RX&origin=ReaxysOutput&ln=,(321 of 4000),167903-40-4,diazo diamine,H4N4,H4N4,60.0586,,,ZQMXRKVJECDMDW-UHFFFAOYSA-N,,,,Identification(6); Physical Data(2); Spectra(4),1.0,3.0,196,,,,,,Patent; ELSICON INC; EP432735; (1991); A2;; ; Patent; NORTHROP GRUMMAN CORPORATION; US5097029; (1992); A;,https://www.reaxys.com/reaxys/secured/hopinto.do?context=C&query=CNR.CNR%3D5853&database=RX&origin=ReaxysOutput&ln=
,FCC=C,1733331.0,https://www.reaxys.com/reaxys/secured/hopinto.do?context=S&query=IDE.XRN%3D1733331&database=RX&origin=ReaxysOutput&ln=,(322 of 4000),818-92-8,3-fluoropropene; Allyl fluoride; 3-fluoropropyl-1-en,CH2CHCH2F,C3H5F,60.0711,acyclic,,QCMKXHXKNIOBBC-UHFFFAOYSA-N,,,,Identification(43); Physical Data(29); Spectra(59),46.0,112.0,85 - 88,,,,,,Patent; DUPONT DE NEMOURS INC; US3940402; (1976); A;,https://www.reaxys.com/reaxys/secured/hopinto.do?context=C&query=CNR.CNR%3D15981&database=RX&origin=ReaxysOutput&ln=
,O=C=S,1697284.0,https://www.reaxys.com/reaxys/secured/hopinto.do?context=S&query=IDE.XRN%3D1697284&database=RX&origin=ReaxysOutput&ln=,(323 of 4000),463-58-1,carbon oxide sulfide; carbonyl sulphide; carbonyl sulfide,OSC,COS,60.0764,acyclic,,JJWKPURADFRFRB-UHFFFAOYSA-N,,,,Identification(2065); Physical Data(310); Spectra(165); Bioactivity(3),1649.0,3803.0,27,,,2.025E+07 Torr,,,"Article; Shimizu, H.; Ikeda, Y.; Sasaki, S.; Chemical Physics Letters; vol. 175; (1990); p. 349 - 353; (from Gmelin)",https://www.reaxys.com/reaxys/secured/hopinto.do?context=C&query=CNR.CNR%3D7655620&database=RX&origin=ReaxysOutput&ln=
,O=[Si]=O,6114654.0,https://www.reaxys.com/reaxys/secured/hopinto.do?context=S&query=IDE.XRN%3D6114654&database=RX&origin=ReaxysOutput&ln=,(324 of 4000),7631-86-9,SiO2; silica,SiO2,O2Si,60.0843,Coordination compound,,VYPSYNLAJGMNEJ-UHFFFAOYSA-N,,,,Identification(18083); Physical Data(24); Spectra(38); Bioactivity(870),213.0,17371.0,116,,,,,,Patent; BRISTOL-MYERS SQUIBB CO; US2002/143035; (2002); A1;,https://www.reaxys.com/reaxys/secured/hopinto.do?context=C&query=CNR.CNR%3D178194&database=RX&origin=ReaxysOutput&ln=
,CC(C)O,635639.0,https://www.reaxys.com/reaxys/secured/hopinto.do?context=S&query=IDE.XRN%3D635639&database=RX&origin=ReaxysOutput&ln=,(325 of 4000),67-63-0,isopropyl alcohol; isopropanol; propan-2-ol; 2-propanol; i-propanol,(H3C)2CHOH,C3H8O,60.0959,acyclic,,KFZMGEQAYNKOFK-UHFFFAOYSA-N,,,,Identification(4251); Physical Data(2970); Spectra(245); Bioactivity(1573),21224.0,24735.0,-87.9,,,,,,"Article; Brown; jr.; Ziegler; Journal of Chemical and Engineering Data; vol. 24; (1979); p. 319,320-322,324,325;",https://www.reaxys.com/reaxys/secured/hopinto.do?context=C&query=CNR.CNR%3D3985693&database=RX&origin=ReaxysOutput&ln=
,CCCO,1098242.0,https://www.reaxys.com/reaxys/secured/hopinto.do?context=S&query=IDE.XRN%3D1098242&database=RX&origin=ReaxysOutput&ln=,(326 of 4000),71-23-8,propan-1-ol; n-propanol; 1-PROPANOL; propanol-1; propanol,C3H7HO,C3H8O,60.0959,acyclic,,BDERNNFJNOPAEC-UHFFFAOYSA-N,,,,Identification(2203); Physical Data(4818); Spectra(287); Bioactivity(934),9815.0,14845.0,97.24,,,,,,"Article; Pla-Franco, Jordi; Lladosa, Estela; Monton, Juan B.; Loras, Sonia; Journal of Chemical and Engineering Data; vol. 58; 12; (2013); p. 3504 - 3512;",https://www.reaxys.com/reaxys/secured/hopinto.do?context=C&query=CNR.CNR%3D62242466&database=RX&origin=ReaxysOutput&ln=
,CN(C)N,605261.0,https://www.reaxys.com/reaxys/secured/hopinto.do?context=S&query=IDE.XRN%3D605261&database=RX&origin=ReaxysOutput&ln=,(327 of 4000),57-14-7,"1,1-dimethylhydrazine; N,N-Dimethylhydrazine; dimethylhydrazine",H2N2(CH3)2,C2H8N2,60.0989,acyclic,,RHUYHJGZWVXEHW-UHFFFAOYSA-N,,,,Identification(1173); Physical Data(159); Spectra(61); Bioactivity(187),3743.0,3275.0,-57,,,,,,"Article; Wang, Yi; Huang, Shi; Zhang, Wenquan; Liu, Tianlin; Qi, Xiujuan; Zhang, Qinghua; Chemistry - A European Journal; vol. 23; 51; (2017); p. 12502 - 12509;",https://www.reaxys.com/reaxys/secured/hopinto.do?context=C&query=CNR.CNR%3D71955463&database=RX&origin=ReaxysOutput&ln=
,NCCN,605263.0,https://www.reaxys.com/reaxys/secured/hopinto.do?context=S&query=IDE.XRN%3D605263&database=RX&origin=ReaxysOutput&ln=,(328 of 4000),107-15-3,"ethylenediamine; Ethane-1,2-diamine; 1,2-ethylenediamine; 1,2-Diaminoethane; 1,2-Ethanediamine; ethylendiamine; etylenediamine",H2N(CH2CH2)NH2,C2H8N2,60.0989,acyclic,,PIICEJLVQHRZGT-UHFFFAOYSA-N,,,,Identification(2700); Physical Data(1068); Spectra(100); Bioactivity(961),21386.0,17559.0,9,,Page/Page column 8,,,,Patent; DOW INC; US2010/137642; (2010); A1;,https://www.reaxys.com/reaxys/secured/hopinto.do?context=C&query=CNR.CNR%3D8873236&database=RX&origin=ReaxysOutput&ln=
,CNNC,1730826.0,https://www.reaxys.com/reaxys/secured/hopinto.do?context=S&query=IDE.XRN%3D1730826&database=RX&origin=ReaxysOutput&ln=,(329 of 4000),540-73-8,"1,2-Dimethylhydrazine",HN(CH3)NHCH3,C2H8N2,60.0989,acyclic,,DIIIISSCIXVANO-UHFFFAOYSA-N,,,,Identification(1130); Physical Data(71); Spectra(17); Bioactivity(272),359.0,1404.0,-8.9,,,,,,Article; Yunda; Lagodzinskaya; Fel'dman; Manelis; Bulletin of the Academy of Sciences of the USSR Division of Chemical Science; vol. 26; 6; (1977); p. 1181 - 1187;,https://www.reaxys.com/reaxys/secured/hopinto.do?context=C&query=CNR.CNR%3D4364613&database=RX&origin=ReaxysOutput&ln=
,C[15N](C)C,1900364.0,https://www.reaxys.com/reaxys/secured/hopinto.do?context=S&query=IDE.XRN%3D1900364&database=RX&origin=ReaxysOutput&ln=,(330 of 4000),25756-36-9,<15N>trimethylamine; trimethylamine-(15)N; Trimethylamin,(15)N(CH3)3,C3H9N,60.1045,acyclic; Isotope or isotope containing compound,,GETQZCLCWQTVFV-AZXPZELESA-N,,,,Identification(11); Physical Data(6); Spectra(9),3.0,13.0,-117,,,,,,Article; Alei; Jr. et al.; Journal of Physical Chemistry; vol. 75; (1971); p. 932;,https://www.reaxys.com/reaxys/secured/hopinto.do?context=C&query=CNR.CNR%3D3984918&database=RX&origin=ReaxysOutput&ln=
,C1CS1,102379.0,https://www.reaxys.com/reaxys/secured/hopinto.do?context=S&query=IDE.XRN%3D102379&database=RX&origin=ReaxysOutput&ln=,(331 of 4000),420-12-2,thirane; ethylene sulfide; thiiran,CH2SCH2,C2H4S,60.1198,heterocyclic,,VOVUARRWDCVURC-UHFFFAOYSA-N,,,,Identification(477); Physical Data(84); Spectra(46); Bioactivity(55),752.0,965.0,55 - 56,,,,,,"Article; Jones et al.; Journal of the Chemical Society. Perkin transactions II; (1972); p. 41,42;",https://www.reaxys.com/reaxys/secured/hopinto.do?context=C&query=CNR.CNR%3D2705875&database=RX&origin=ReaxysOutput&ln=
,C[SiH2]C,1730746.0,https://www.reaxys.com/reaxys/secured/hopinto.do?context=S&query=IDE.XRN%3D1730746&database=RX&origin=ReaxysOutput&ln=,(332 of 4000),1111-74-6,dimethylsilane,H2Si(CH3)2,C2H8Si,60.171,acyclic,,UBHZUDXTHNMNLD-UHFFFAOYSA-N,,,,Identification(200); Physical Data(86); Spectra(65); Bioactivity(1),181.0,416.0,-150.22,,,,,,Article; Tannenbaum; Kaye; Lewenz; Journal of the American Chemical Society; vol. 75; (1953); p. 3756;,https://www.reaxys.com/reaxys/secured/hopinto.do?context=C&query=CNR.CNR%3D1250647&database=RX&origin=ReaxysOutput&ln=
,CC[SiH3],1730749.0,https://www.reaxys.com/reaxys/secured/hopinto.do?context=S&query=IDE.XRN%3D1730749&database=RX&origin=ReaxysOutput&ln=,(333 of 4000),2814-79-1,ethylsilane; Ethylsilan,SiH3C2H5,C2H8Si,60.171,acyclic,,KCWYOFZQRFCIIE-UHFFFAOYSA-N,,,,Identification(52); Physical Data(29); Spectra(22),35.0,97.0,-179.7,,,,,,Article; Tannenbaum; Kaye; Lewenz; Journal of the American Chemical Society; vol. 75; (1953); p. 3756;,https://www.reaxys.com/reaxys/secured/hopinto.do?context=C&query=CNR.CNR%3D1250647&database=RX&origin=ReaxysOutput&ln=
,[Li].Cl.[H]O[H],16522229.0,https://www.reaxys.com/reaxys/secured/hopinto.do?context=S&query=IDE.XRN%3D16522229&database=RX&origin=ReaxysOutput&ln=,(334 of 4000),,lithium chloride hydrate; lithium chloride monohydrate,LiCl*H2O,H2O*ClLi,60.4093,,,KRGUCSKRPYJZON-UHFFFAOYSA-N,,,,Identification(9); Physical Data(38); Spectra(2),59.0,70.0,90,,,,,,"Article; Emons, H.-H.; Naumann, R.; Koehnke, K.; Pollmer, K.; Siedler, M.; Journal of Thermal Analysis; vol. 32; (1987); p. 1969 - 1978; (from Gmelin)",https://www.reaxys.com/reaxys/secured/hopinto.do?context=C&query=CNR.CNR%3D7819981&database=RX&origin=ReaxysOutput&ln=
,CON.[H]B([H])[H],3664307.0,https://www.reaxys.com/reaxys/secured/hopinto.do?context=S&query=IDE.XRN%3D3664307&database=RX&origin=ReaxysOutput&ln=,(335 of 4000),,O-methyl-hydroxylamine; compound with borane; O-Methyl-hydroxylamin; Verbindung mit Boran,CH5NO*BH3,BH3*CH5NO,60.8916,acyclic,,NRPJNSNRIFSGCC-UHFFFAOYSA-N,,,,Identification(5); Physical Data(1),5.0,1.0,55,,,Decomp.,,,"Article; Bissot et al.; Journal of the American Chemical Society; vol. 80; (1958); p. 1868,1869,1870;",https://www.reaxys.com/reaxys/secured/hopinto.do?context=C&query=CNR.CNR%3D1275073&database=RX&origin=ReaxysOutput&ln=
,FN=N#N,16514919.0,https://www.reaxys.com/reaxys/secured/hopinto.do?context=S&query=IDE.XRN%3D16514919&database=RX&origin=ReaxysOutput&ln=,(337 of 4000),14986-60-8,fluoroazide; fluorine azide,NNNF,FN3,61.0185,,,AJXWEJAGUZJGRI-UHFFFAOYSA-N,,,,Identification(41); Physical Data(23); Spectra(14),25.0,66.0,-139,,,,,,"Article; Gholivand, Khodayar; Schatte, Gabriele; Willner, Helge; Inorganic Chemistry; vol. 26; 13; (1987); p. 2137 - 2140; (from Gmelin)",https://www.reaxys.com/reaxys/secured/hopinto.do?context=C&query=CNR.CNR%3D7825463&database=RX&origin=ReaxysOutput&ln=