Structure: Image,SMILES,Substance Identification: Reaxys Registry Number,Links to Reaxys,Data Count,CAS Registry Number,Chemical Name,Linear Structure Formula,Molecular Formula,Molecular Weight,Type of Substance,Type and Modification,InChI Key,Composition: Comp. Name,Composition: Comp. Conc.,Composition: Comp. Attrib.,Field Availability,Number of Reactions,Number of References,Melting Point: Melting Point [C],Solvent (Melting Point),Location,Comment (Melting Point),Crystallizes With,Amount (Melting Point) [mol],References,Links to Reaxys.1
,Cl[H].NS,15675382.0,https://www.reaxys.com/reaxys/secured/hopinto.do?context=S&query=IDE.XRN%3D15675382&database=RX&origin=ReaxysOutput&ln=,(1372 of 4000),,aminothiol hydrochloride; thioamine hydrochloride,ClH*H3NS,ClH*H3NS,85.5575,,,DWRGLIHFAJTMGM-UHFFFAOYSA-N,,,,Identification(7); Physical Data(1); Spectra(1),1.0,3.0,150,,,,,,Patent; NATIONAL INSTITUTE OF HEALTH AND MEDICAL RESEARCH; BIOPROJET; US6436973; (2002); B1;,https://www.reaxys.com/reaxys/secured/hopinto.do?context=C&query=CNR.CNR%3D199740&database=RX&origin=ReaxysOutput&ln=
,[Li].B.O.O.[H]O[H],17312350.0,https://www.reaxys.com/reaxys/secured/hopinto.do?context=S&query=IDE.XRN%3D17312350&database=RX&origin=ReaxysOutput&ln=,(1373 of 4000),,lithium monoborate dihydrate; lithium metaborate dihydrate,LiBO2*2H2O,2H2O*BLiO2,85.7814,,,XNDFKGDFSQPBOC-UHFFFAOYSA-N,,,,Identification(5); Physical Data(7); Spectra(2),3.0,4.0,106.84,,,,,,"Article; Koga, Nobuyoshi; Utsuoka, Takahide; Thermochimica Acta; vol. 443; 2; (2006); p. 197 - 205; (from Gmelin)",https://www.reaxys.com/reaxys/secured/hopinto.do?context=C&query=CNR.CNR%3D8531086&database=RX&origin=ReaxysOutput&ln=
,[H+].O[B-](F)(F)F,16483091.0,https://www.reaxys.com/reaxys/secured/hopinto.do?context=S&query=IDE.XRN%3D16483091&database=RX&origin=ReaxysOutput&ln=,(1374 of 4000),,hydrogen trifluoro hydroxo borate,H(1+)*BF3OH(1-)=HBF3OH,BF3HO*H,85.8215,Coordination compound,,UFNLUVSTNNSLEQ-UHFFFAOYSA-O,,,,Identification(5); Physical Data(20); Spectra(4),23.0,30.0,5.7,,,,,,"Article; Ford, P. T.; Richards, R. E.; Journal of the Chemical Society; Journal of the Chemical Society; (1956); p. 3870 - 3874;; ; Article; Gmelin Handbuch der Anorganischen Chemie; vol. B: B-Verb.8; 5, page 73 - 90; (from Gmelin)",https://www.reaxys.com/reaxys/secured/hopinto.do?context=C&query=CNR.CNR%3D7717276&database=RX&origin=ReaxysOutput&ln=
,CB1OCCO1,969260.0,https://www.reaxys.com/reaxys/secured/hopinto.do?context=S&query=IDE.XRN%3D969260&database=RX&origin=ReaxysOutput&ln=,(1375 of 4000),37003-57-9,"2-Methyl-[1,3,2]dioxaborolan; 2-methyl-1,3,2-dioxaborolane; Methylboronsaeure-aethandiylester",C2H4O2BCH3,C3H7BO2,85.8984,heterocyclic,,USMRYMUZKSMTRL-UHFFFAOYSA-N,,,,Identification(11); Physical Data(3); Spectra(5),11.0,18.0,-57,,,,,,"Article; Ulmschneider; Goubeau; Chemische Berichte; vol. 90; (1957); p. 2733,2736;",https://www.reaxys.com/reaxys/secured/hopinto.do?context=C&query=CNR.CNR%3D1637015&database=RX&origin=ReaxysOutput&ln=
,CC(=C)B(O)O,1740261.0,https://www.reaxys.com/reaxys/secured/hopinto.do?context=S&query=IDE.XRN%3D1740261&database=RX&origin=ReaxysOutput&ln=,(1376 of 4000),14559-87-6,isopropenylboronic acid; prop-1-en-2-ylboronic acid,(CH2C(CH3))B(OH)2,C3H7BO2,85.8984,acyclic,,WCONKKYQBKPMNZ-UHFFFAOYSA-N,,,,Identification(19); Physical Data(10); Spectra(11),108.0,91.0,77 - 79,,,Decomposition,,,"Article; Banerjee, Moloy; Vyas, Vijay S.; Lindeman, Sergey V.; Rathore, Rajendra; Chemical Communications; 16; (2008); p. 1889 - 1891;",https://www.reaxys.com/reaxys/secured/hopinto.do?context=C&query=CNR.CNR%3D8659005&database=RX&origin=ReaxysOutput&ln=
,CC=CB(O)O,1741779.0,https://www.reaxys.com/reaxys/secured/hopinto.do?context=S&query=IDE.XRN%3D1741779&database=RX&origin=ReaxysOutput&ln=,(1377 of 4000),7547-96-8; 7547-97-9; 88982-39-2; 6336-44-3,1-propenylboronic acid; propenylboronic acid,CH3CHCHB(OH)2,C3H7BO2,85.8984,acyclic,,CBMCZKMIOZYAHS-UHFFFAOYSA-N,,,,Identification(24); Physical Data(3); Spectra(4),85.0,58.0,117,benzene,,,,,"Article; Braun,J.; Normant,H.; Bulletin de la Societe Chimique de France; (1966); p. 2557 - 2564;",https://www.reaxys.com/reaxys/secured/hopinto.do?context=C&query=CNR.CNR%3D118122&database=RX&origin=ReaxysOutput&ln=
,C\C=C/B(O)O,2037349.0,https://www.reaxys.com/reaxys/secured/hopinto.do?context=S&query=IDE.XRN%3D2037349&database=RX&origin=ReaxysOutput&ln=,(1378 of 4000),6336-44-3; 7547-97-9; 88982-39-2; 7547-96-8,cis-1-propenylboronic acid; cis-propenylboronic acid,CH3CHCHB(OH)2,C3H7BO2,85.8984,acyclic,,CBMCZKMIOZYAHS-IHWYPQMZSA-N,,,,Identification(26); Physical Data(2); Spectra(6),85.0,89.0,70 - 71,,,,,,"Article; Nesmeyanov et al.; Doklady Chemistry; vol. 169; (1966); p. 730,731-732; Doklady Akademii Nauk SSSR; vol. 169; (1966); p. 602;",https://www.reaxys.com/reaxys/secured/hopinto.do?context=C&query=CNR.CNR%3D4170113&database=RX&origin=ReaxysOutput&ln=
,C\C=C\B(O)O,2037350.0,https://www.reaxys.com/reaxys/secured/hopinto.do?context=S&query=IDE.XRN%3D2037350&database=RX&origin=ReaxysOutput&ln=,(1379 of 4000),6336-44-3; 7547-96-8; 88982-39-2; 7547-97-9,(E)-propenylboronic acid,CH3CHCHB(OH)2,C3H7BO2,85.8984,acyclic,,CBMCZKMIOZYAHS-NSCUHMNNSA-N,,,,Identification(24); Physical Data(7); Spectra(9),190.0,161.0,72 - 75,,,,,,"Article; Matteson, Donald S.; Jesthi, Pradipta K.; Journal of Organometallic Chemistry; vol. 110; 1; (1976); p. 25 - 37;",https://www.reaxys.com/reaxys/secured/hopinto.do?context=C&query=CNR.CNR%3D286222&database=RX&origin=ReaxysOutput&ln=
,OB(O)C1CC1,9385789.0,https://www.reaxys.com/reaxys/secured/hopinto.do?context=S&query=IDE.XRN%3D9385789&database=RX&origin=ReaxysOutput&ln=,(1380 of 4000),411235-57-9,cyclopropylboronic acid; cyclopropaneboronic acid; cyclopropyl boric acid,C3H5B(OH)2,C3H7BO2,85.8984,isocyclic,,WLVKDFJTYKELLQ-UHFFFAOYSA-N,,,,Identification(324); Physical Data(16); Spectra(10); Bioactivity(128),3176.0,2542.0,90 - 95,,Page/Page column 5-10,,,,Patent; DALIAN SHUANGPENG PHARMACY CHEMICAL IND; CN113735889; (2021); A;,https://www.reaxys.com/reaxys/secured/hopinto.do?context=C&query=CNR.CNR%3D108044240&database=RX&origin=ReaxysOutput&ln=
,CCB(O)CC,1731348.0,https://www.reaxys.com/reaxys/secured/hopinto.do?context=S&query=IDE.XRN%3D1731348&database=RX&origin=ReaxysOutput&ln=,(1381 of 4000),4426-31-7,diethylboric acid; diethylborinic acid; diethyl-hydroxy-borane; Diaethylborinsaeure; Diaethyl-hydroxy-boran; Diaethylborhydroxyd; 'Diaethylborsaeure',(C2H5)2BOH,C4H11BO,85.9417,acyclic,,ADEAZBLSUNLCQN-UHFFFAOYSA-N,,,,Identification(8); Physical Data(9); Spectra(2),48.0,37.0,-51 - -48,,,,,,"Article; Meerwein; Soenke; Journal fur praktische Chemie (Leipzig 1954); vol. &lt;2&gt;147; (1937); p. 251,253;",https://www.reaxys.com/reaxys/secured/hopinto.do?context=C&query=CNR.CNR%3D1251801&database=RX&origin=ReaxysOutput&ln=
,[H]B([H])[H].C1CCOC1,3668402.0,https://www.reaxys.com/reaxys/secured/hopinto.do?context=S&query=IDE.XRN%3D3668402&database=RX&origin=ReaxysOutput&ln=,(1382 of 4000),,borane tetrahydrofuran; BH3(THF),H3B*C4H8O,BH3*C4H8O,85.9417,heterocyclic,,RMCYTHFAWCWRFA-UHFFFAOYSA-N,,,,Identification(29); Physical Data(10); Spectra(13),832.0,445.0,-34,,,,,,Article; Rice et al.; Journal of the American Chemical Society; vol. 77; (1955); p. 2750;,https://www.reaxys.com/reaxys/secured/hopinto.do?context=C&query=CNR.CNR%3D607727&database=RX&origin=ReaxysOutput&ln=
,[Li].O.[Al].[Mn].[Co].[Ni],28438467.0,https://www.reaxys.com/reaxys/secured/hopinto.do?context=S&query=IDE.XRN%3D28438467&database=RX&origin=ReaxysOutput&ln=,(1383 of 4000),,,Li[Li0.17Ni0.2Co0.05Mn0.56Al0.02]O1.99,Al0Co0LiMn0Ni0O,85.9523,,,BVUZFFZTQSVJQR-UHFFFAOYSA-N,,,,Identification(6); Physical Data(3); Spectra(2),1.0,1.0,231.8,,,,,,Article; Wang; Huang; Li; Cao; Ye; RSC Advances; vol. 5; 61; (2015); p. 49651 - 49656;,https://www.reaxys.com/reaxys/secured/hopinto.do?context=C&query=CNR.CNR%3D66390695&database=RX&origin=ReaxysOutput&ln=
,OC(F)(F)F,1900404.0,https://www.reaxys.com/reaxys/secured/hopinto.do?context=S&query=IDE.XRN%3D1900404&database=RX&origin=ReaxysOutput&ln=,(1384 of 4000),1493-11-4,trifluoromethanol; Trifluormethanol; perfluoromethanol; trifluoromethyl alcohol,F3COH,CHF3O,86.0135,acyclic,,WZCZNEGTXVXAAS-UHFFFAOYSA-N,,,,Identification(45); Physical Data(10); Spectra(21),43.0,76.0,-82,,,,,,"Article; Kloeter,G.; Seppelt,K.; Journal of the American Chemical Society; vol. 101; (1979); p. 347 - 349;; ; Article; Seppelt,K.; Angewandte Chemie; vol. 89; (1977); p. 325;",https://www.reaxys.com/reaxys/secured/hopinto.do?context=C&query=CNR.CNR%3D74433&database=RX&origin=ReaxysOutput&ln=
,N1C=PC=N1,3535881.0,https://www.reaxys.com/reaxys/secured/hopinto.do?context=S&query=IDE.XRN%3D3535881&database=RX&origin=ReaxysOutput&ln=,(1385 of 4000),42226-36-8,"1H-1,2,4-diazaphosphole; 1,2,4-Diazaphosphol",HNNCHPCH,C2H3N2P,86.033,heterocyclic,,UTBLASGDPWVWCM-UHFFFAOYSA-N,,,,Identification(16); Physical Data(7); Spectra(19),19.0,20.0,76,,,,,,"Article; Schnurr, Werner; Regitz, Manfred; Zeitschrift fur Naturforschung, B: Chemical Sciences; vol. 43; 10; (1988); p. 1285 - 1292;",https://www.reaxys.com/reaxys/secured/hopinto.do?context=C&query=CNR.CNR%3D5832488&database=RX&origin=ReaxysOutput&ln=
,O=C1OC=CO1,105683.0,https://www.reaxys.com/reaxys/secured/hopinto.do?context=S&query=IDE.XRN%3D105683&database=RX&origin=ReaxysOutput&ln=,(1386 of 4000),872-36-6,"vinylene carbonate; 1,3-dioxol-2-one; vinylidene carbonate",C3H2O3,C3H2O3,86.0471,heterocyclic,,VAYTZRYEBVHVLE-UHFFFAOYSA-N,,,,Identification(1135); Physical Data(48); Spectra(23); Bioactivity(69),895.0,1364.0,22,,,,,,"Article; Newman; Addor; Journal of the American Chemical Society; vol. 77; (1955); p. 3789,3791;; ; Article; Smets; Hayashi; Journal of Polymer Science; vol. 29; (1958); p. 257,258;; ; Article; Saadi; Lee; Journal of the Chemical Society B: Physical Organic; (1966); p. 5;",https://www.reaxys.com/reaxys/secured/hopinto.do?context=C&query=CNR.CNR%3D518544&database=RX&origin=ReaxysOutput&ln=
,OC1=C(O)C1=O,1923360.0,https://www.reaxys.com/reaxys/secured/hopinto.do?context=S&query=IDE.XRN%3D1923360&database=RX&origin=ReaxysOutput&ln=,(1387 of 4000),54826-91-4,deltic acid; Deltasaeure; Dihydroxy-cyclopropenon,C3H2O3,C3H2O3,86.0471,isocyclic,,SPXGBDTUWODGLI-UHFFFAOYSA-N,,,,Identification(25); Physical Data(11); Spectra(16),7.0,20.0,213 - 215,,,Decomposition,,,"Article; Fu, Nanyan; Allen, Annette D.; Kobayashi, Shinjiro; Tidwell, Thomas T.; Vukovic, Sinisa; Matsuoka, Takeshi; Mishima, Masaaki; Journal of Organic Chemistry; vol. 73; 5; (2008); p. 1768 - 1773;",https://www.reaxys.com/reaxys/secured/hopinto.do?context=C&query=CNR.CNR%3D7175597&database=RX&origin=ReaxysOutput&ln=
,O=C1NN=CO1,107049.0,https://www.reaxys.com/reaxys/secured/hopinto.do?context=S&query=IDE.XRN%3D107049&database=RX&origin=ReaxysOutput&ln=,(1388 of 4000),51517-09-0,"1,3,4-oxadiazol-2(3H)-one; 1,3,4-Oxadiazol-2(3H)-on; 1,3,4-oxadiazol-2-one; 3H-[1,3,4]oxadiazol-2-one; 3H-[1,3,4]Oxadiazol-2-on; 1,3,4-oxadiazolin-2-one; 1,3,4-oxadiazolinone",C2H2N2O2,C2H2N2O2,86.0501,heterocyclic,,WTSXVIMLKCKWIW-UHFFFAOYSA-N,,,,Identification(29); Physical Data(4); Spectra(1),9.0,27.0,118 - 120,,,,,,"Article; Ruefenacht,K.; Helvetica Chimica Acta; vol. 55; (1972); p. 1174 - 1178;",https://www.reaxys.com/reaxys/secured/hopinto.do?context=C&query=CNR.CNR%3D6726&database=RX&origin=ReaxysOutput&ln=
,ONC(=O)C#N,1746577.0,https://www.reaxys.com/reaxys/secured/hopinto.do?context=S&query=IDE.XRN%3D1746577&database=RX&origin=ReaxysOutput&ln=,(1389 of 4000),140177-11-3,oxalic acid hydroxyamide-nitrile; Oxalsaeure-hydroxyamid-nitril,C2H2N2O2,C2H2N2O2,86.0501,acyclic,,RQCAREAVVCFQHW-UHFFFAOYSA-N,,,,Identification(5); Physical Data(2),3.0,1.0,114 - 115,ethyl acetate; CHCl3,,with:0.5 Mol.H2O (solvent).Decomp.,,,"Article; Ponzio; Gazzetta Chimica Italiana; vol. 62; (1932); p. 635,636;",https://www.reaxys.com/reaxys/secured/hopinto.do?context=C&query=CNR.CNR%3D746253&database=RX&origin=ReaxysOutput&ln=
,O=C1CON=N1,14656846.0,https://www.reaxys.com/reaxys/secured/hopinto.do?context=S&query=IDE.XRN%3D14656846&database=RX&origin=ReaxysOutput&ln=,(1390 of 4000),,Oxadiazolone,C2H2N2O2,C2H2N2O2,86.0501,,,ZVTQYRVARPYRRE-UHFFFAOYSA-N,,,,Identification(58); Physical Data(1); Spectra(4),5.0,56.0,69.7 - 74.1,,,,,,Patent; PFIZER INC; US2001/44539; (2001); A1;,https://www.reaxys.com/reaxys/secured/hopinto.do?context=C&query=CNR.CNR%3D7123352&database=RX&origin=ReaxysOutput&ln=
,O=N1=CN=NN1,2151.0,https://www.reaxys.com/reaxys/secured/hopinto.do?context=S&query=IDE.XRN%3D2151&database=RX&origin=ReaxysOutput&ln=,(1391 of 4000),118632-61-4,2H-tetrazole-1-oxide; 2H-Tetrazol-1-oxid,H2CN4O,CH2N4O,86.0531,heterocyclic,,QJUWZBPBCHEKQL-UHFFFAOYSA-N,,,,Identification(5); Physical Data(1),8.0,7.0,155,ethyl acetate,,Decomp.at:160 degreeC.Explodiert bei kraeftigem Schlagen.,,,Article; Pallazzo; Marogna; Gazzetta Chimica Italiana; vol. 43 I; (1913); p. 71;,https://www.reaxys.com/reaxys/secured/hopinto.do?context=C&query=CNR.CNR%3D1309803&database=RX&origin=ReaxysOutput&ln=
,O=C1NN=NN1,108720.0,https://www.reaxys.com/reaxys/secured/hopinto.do?context=S&query=IDE.XRN%3D108720&database=RX&origin=ReaxysOutput&ln=,(1392 of 4000),16421-52-6,"tetrazolone; 5-oxotetrazole; 1,4-dihydro-tetrazolone; 1,4-Dihydro-tetrazolon; 5(4H)-tetrazolinone; 5-oxo-4,5-dihydro-1H-tetrazole; tetrazolinone",CH2N4O,CH2N4O,86.0531,heterocyclic,,JXBKZAYVMSNKHA-UHFFFAOYSA-N,,,,Identification(15); Physical Data(22); Spectra(9),22.0,24.0,243 - 245,,,,,,"Article; Haines, David R.; Leonard, Nelson J.; Wiemer, David F.; Journal of Organic Chemistry; vol. 47; 3; (1982); p. 474 - 482;",https://www.reaxys.com/reaxys/secured/hopinto.do?context=C&query=CNR.CNR%3D5570322&database=RX&origin=ReaxysOutput&ln=
,ON1C=NN=N1,109437.0,https://www.reaxys.com/reaxys/secured/hopinto.do?context=S&query=IDE.XRN%3D109437&database=RX&origin=ReaxysOutput&ln=,(1393 of 4000),108776-02-9,1-hydroxytetrazole,CH2N4O,CH2N4O,86.0531,heterocyclic,,BSNCOPOPGMQUNL-UHFFFAOYSA-N,,,,Identification(19); Physical Data(9); Spectra(6),13.0,15.0,145,H2O,,Decomp.,,,"Article; Pallazzo; Atti della Accademia Nazionale dei Lincei, Classe di Scienze Fisiche, Matematiche e Naturali, Rendiconti; vol. &lt;5&gt;19 I; (1910); p. 220; Atti della Accademia Nazionale dei Lincei, Classe di Scienze Fisiche, Matematiche e Naturali, Rendiconti; vol. &lt;5&gt;21 II; (1912); p. 718;",https://www.reaxys.com/reaxys/secured/hopinto.do?context=C&query=CNR.CNR%3D1309801&database=RX&origin=ReaxysOutput&ln=
,NC(=O)N=N#N,1701205.0,https://www.reaxys.com/reaxys/secured/hopinto.do?context=S&query=IDE.XRN%3D1701205&database=RX&origin=ReaxysOutput&ln=,(1394 of 4000),13125-56-9,carbamoyl azide,(NH2)(N3)CO,CH2N4O,86.0531,acyclic,,BLNJZMQZYXWQGM-UHFFFAOYSA-N,,,,Identification(24); Physical Data(29); Spectra(13),96.0,75.0,96,,,,,,"Article; Harter, Alexander G.; Klapötke, Thomas M.; Stierstorfer, Jörg; Voggenreiter, Michael; Zeng, Xiaoqing; ChemPlusChem; vol. 86; 6; (2021); p. 870 - 874;",https://www.reaxys.com/reaxys/secured/hopinto.do?context=C&query=CNR.CNR%3D95275377&database=RX&origin=ReaxysOutput&ln=
,ON1N=CN=N1,7126024.0,https://www.reaxys.com/reaxys/secured/hopinto.do?context=S&query=IDE.XRN%3D7126024&database=RX&origin=ReaxysOutput&ln=,(1395 of 4000),,2-hydroxytetrazole,CH2N4O,CH2N4O,86.0531,heterocyclic,,XVNKJDGEOJZCEL-UHFFFAOYSA-N,,,,Identification(11); Physical Data(1); Spectra(2),2.0,6.0,143 - 146,ethyl acetate,,,,,"Article; Begtrup, Mikael; Vedso, Per; Journal of the Chemical Society. Perkin transactions I; 3; (1995); p. 243 - 248;",https://www.reaxys.com/reaxys/secured/hopinto.do?context=C&query=CNR.CNR%3D5945602&database=RX&origin=ReaxysOutput&ln=
,NC1=NN=[15N]N1,10654286.0,https://www.reaxys.com/reaxys/secured/hopinto.do?context=S&query=IDE.XRN%3D10654286&database=RX&origin=ReaxysOutput&ln=,(1396 of 4000),,[2-15N]-5-aminotetrazole,CH3N4(15)N,CH3N5,86.0616,heterocyclic,,ULRPISSMEBPJLN-HOSYLAQJSA-N,,,,Identification(6); Physical Data(1),5.0,2.0,200,,,,,,Article; Shestakova; Deev; Ulomsky; Rusinov; Chupakhin; D'yachenko; Kazheva; Chekhlov; Slepukhin; Kodess; Russian Chemical Bulletin; vol. 55; 11; (2006); p. 2071 - 2080;,https://www.reaxys.com/reaxys/secured/hopinto.do?context=C&query=CNR.CNR%3D6648933&database=RX&origin=ReaxysOutput&ln=
,FS(F)=O,5916422.0,https://www.reaxys.com/reaxys/secured/hopinto.do?context=S&query=IDE.XRN%3D5916422&database=RX&origin=ReaxysOutput&ln=,(1397 of 4000),7783-42-8,thionyl fluoride,S(O)F2,F2OS,86.0622,,,LSJNBGSOIVSBBR-UHFFFAOYSA-N,,,,Identification(42); Physical Data(73); Spectra(19); Bioactivity(14),154.0,242.0,-129.5 - -128.5,,,,,,"Article; Booth, H. S.; Walkup, J. H.; Journal of the American Chemical Society; vol. 65; (1943); p. 2334 - 2339;; ; Article; Gmelin Handbuch der Anorganischen Chemie; vol. S: MVol.B3; 90, page 1726 - 1728; (from Gmelin)",https://www.reaxys.com/reaxys/secured/hopinto.do?context=C&query=CNR.CNR%3D7402262&database=RX&origin=ReaxysOutput&ln=
,O[15N]1C=CC=[15N]1,7987741.0,https://www.reaxys.com/reaxys/secured/hopinto.do?context=S&query=IDE.XRN%3D7987741&database=RX&origin=ReaxysOutput&ln=,(1398 of 4000),,[15N2] 1-hydroxypyrazole,C3H4(15)N2O,C3H4N2O,86.0642,heterocyclic,,QVCIPIYWPSPRFA-MQIHXRCWSA-N,,,,Identification(5); Physical Data(1); Spectra(6),2.0,1.0,70,,,,,,"Article; Claramunt, Rosa Maria; Sanz, Dionisia; Maria, Maria Dolores Santa; Jimenez, Jose Antonio; Jimeno, Maria Luisa; Elguero, Jose; Heterocycles; vol. 47; 1; (1998); p. 301 - 314;",https://www.reaxys.com/reaxys/secured/hopinto.do?context=C&query=CNR.CNR%3D6096486&database=RX&origin=ReaxysOutput&ln=
,FC1=CNN=C1,385788.0,https://www.reaxys.com/reaxys/secured/hopinto.do?context=S&query=IDE.XRN%3D385788&database=RX&origin=ReaxysOutput&ln=,(1399 of 4000),35277-02-2,4-fluoro-1H-pyrazole; 4-fluoropyrazole,C3H3N2F,C3H3FN2,86.0686,heterocyclic,,RYXJXPHWRBWEEB-UHFFFAOYSA-N,,,,Identification(59); Physical Data(8); Spectra(14),118.0,122.0,36.5 - 38.5,,,,,,"Article; Reichardt,C.; Halbritter,K.; Justus Liebigs Annalen der Chemie; (1975); p. 470 - 483;",https://www.reaxys.com/reaxys/secured/hopinto.do?context=C&query=CNR.CNR%3D76026&database=RX&origin=ReaxysOutput&ln=
,FC1=NNC=C1,506859.0,https://www.reaxys.com/reaxys/secured/hopinto.do?context=S&query=IDE.XRN%3D506859&database=RX&origin=ReaxysOutput&ln=,(1400 of 4000),14521-81-4,3-fluoro-1H-pyrazole; 3-fluoropyrazole,C3H3FN2,C3H3FN2,86.0686,heterocyclic,,WNDHCIJGEKNYNF-UHFFFAOYSA-N,,,,Identification(19); Physical Data(2),17.0,25.0,156,,,,,,"Article; Reimlinger; van Overstraeten; Chemische Berichte; vol. 99; (1966); p. 3350,3356;",https://www.reaxys.com/reaxys/secured/hopinto.do?context=C&query=CNR.CNR%3D2785949&database=RX&origin=ReaxysOutput&ln=
,FC1=CNC=N1,605845.0,https://www.reaxys.com/reaxys/secured/hopinto.do?context=S&query=IDE.XRN%3D605845&database=RX&origin=ReaxysOutput&ln=,(1401 of 4000),30086-17-0,4-fluoro-1H-imidazole; 4-Fluorimidazol; 4-fluoroimidazole,C3H3FN2,C3H3FN2,86.0686,heterocyclic,,HWUPTWDARIVICI-UHFFFAOYSA-N,,,,Identification(18); Physical Data(11); Spectra(25),21.0,26.0,101 - 103,,,,,,"Article; Lingscheid, Yves; Paul, Mathias; Bröhl, Andreas; Neudörfl, Jörg-Martin; Giernoth, Ralf; Magnetic Resonance in Chemistry; vol. 56; 2; (2018); p. 80 - 85;",https://www.reaxys.com/reaxys/secured/hopinto.do?context=C&query=CNR.CNR%3D72200131&database=RX&origin=ReaxysOutput&ln=
,[H][C@@]1(CO1)[C@]1([H])CO1,79832.0,https://www.reaxys.com/reaxys/secured/hopinto.do?context=S&query=IDE.XRN%3D79832&database=RX&origin=ReaxysOutput&ln=,(1403 of 4000),564-00-1,"meso-1,2,3,4-diepoxybutane; erythritol anhydride; meso-Diepoxybutane",C4H6O2,C4H6O2,86.0904,heterocyclic,,ZFIVKAOQEXOYFY-ZXZARUISSA-N,,,,Identification(32); Physical Data(13); Spectra(4); Bioactivity(5),50.0,61.0,-19,,,,,,"Article; Beech; Journal of the Chemical Society; (1951); p. 2483,2486;",https://www.reaxys.com/reaxys/secured/hopinto.do?context=C&query=CNR.CNR%3D1609257&database=RX&origin=ReaxysOutput&ln=