Structure: Image,SMILES,Substance Identification: Reaxys Registry Number,Links to Reaxys,Data Count,CAS Registry Number,Chemical Name,Linear Structure Formula,Molecular Formula,Molecular Weight,Type of Substance,Type and Modification,InChI Key,Composition: Comp. Name,Composition: Comp. Conc.,Composition: Comp. Attrib.,Field Availability,Number of Reactions,Number of References,Melting Point: Melting Point [C],Solvent (Melting Point),Location,Comment (Melting Point),Crystallizes With,Amount (Melting Point) [mol],References,Links to Reaxys.1
,C=CCN=C,1733370.0,https://www.reaxys.com/reaxys/secured/hopinto.do?context=S&query=IDE.XRN%3D1733370&database=RX&origin=ReaxysOutput&ln=,(516 of 4000),92667-46-4,N-Methylenallylamin; N-methylidene propene-2 amine; allyl-methylen-amine; Formaldehyd-allylimin,C4H7N,C4H7N,69.1063,acyclic,,YFFIURRZIVRPII-UHFFFAOYSA-N,,,,Identification(8); Physical Data(4); Spectra(10),5.0,4.0,-125.5 - -125,,,,,,Patent; DUPONT DE NEMOURS INC; US2729680; (1952); A;,https://www.reaxys.com/reaxys/secured/hopinto.do?context=C&query=CNR.CNR%3D1255095&database=RX&origin=ReaxysOutput&ln=
,NCC=C=C,1735808.0,https://www.reaxys.com/reaxys/secured/hopinto.do?context=S&query=IDE.XRN%3D1735808&database=RX&origin=ReaxysOutput&ln=,(517 of 4000),73586-36-4,"2,3-butadienyl amine; 1-amino-2,3-butadiene; buta-2,3-dien-1-amine; buta-2,3-dienylamine; 4-Amino-butadien-(1.2)",C4H7N,C4H7N,69.1063,acyclic,,JCWPPNJQFKFPKA-UHFFFAOYSA-N,,,,Identification(11); Physical Data(3); Bioactivity(9),5.0,13.0,120,,,,,,"Article; Casara, Patrick; Jund, Karin; Bey, Philippe; Tetrahedron Letters; vol. 25; 18; (1984); p. 1891 - 1894;",https://www.reaxys.com/reaxys/secured/hopinto.do?context=C&query=CNR.CNR%3D5550862&database=RX&origin=ReaxysOutput&ln=
,C=NC1CC1,4950628.0,https://www.reaxys.com/reaxys/secured/hopinto.do?context=S&query=IDE.XRN%3D4950628&database=RX&origin=ReaxysOutput&ln=,(518 of 4000),92667-45-3,N-Methylencyclopropylamin; cyclopropyl isonitrile,C4H7N,C4H7N,69.1063,isocyclic,,RCFPSGOBIRMFEI-UHFFFAOYSA-N,,,,Identification(6); Physical Data(1); Spectra(1),4.0,3.0,62,,,,,,"Article; Mueller, Eduard; Kettler, Regina; Wiessler, Manfred; Liebigs Annalen der Chemie; 8; (1984); p. 1468 - 1493;",https://www.reaxys.com/reaxys/secured/hopinto.do?context=C&query=CNR.CNR%3D5625238&database=RX&origin=ReaxysOutput&ln=
,[Be++].CC,14503312.0,https://www.reaxys.com/reaxys/secured/hopinto.do?context=S&query=IDE.XRN%3D14503312&database=RX&origin=ReaxysOutput&ln=,(520 of 4000),,BeEt2,Be(2+)*2C2H6,Be*2C2H6,69.1515,,,FJGKDXBMQHZCSR-UHFFFAOYSA-N,,,,Identification(5); Physical Data(1),,1.0,12,,,,,,Patent; HARVARD UNIVERSITY; US2005/277780; (2005); A1;,https://www.reaxys.com/reaxys/secured/hopinto.do?context=C&query=CNR.CNR%3D388307&database=RX&origin=ReaxysOutput&ln=
,Cl[H].NO,3539763.0,https://www.reaxys.com/reaxys/secured/hopinto.do?context=S&query=IDE.XRN%3D3539763&database=RX&origin=ReaxysOutput&ln=,(521 of 4000),5470-11-1,hydroxylamine hydrochloride; Hydroxylammonium chloride; NH2OH.HCl; hydroxyamine hydrochloride; NH2OH; hydroxylamine; hydroxylamine monohydrochloride; hydroxyamino hydrochloride; hydroxylamine chloridrate; hydroxyammonium chloride; hydroxylamine chloride,HONH3(1+)*Cl(1-)=HONH2*HCl,Cl*H4NO,69.4909,,,WTDHULULXKLSOZ-UHFFFAOYSA-N,,,,Identification(4545); Physical Data(49); Spectra(15); Bioactivity(294),1399.0,5832.0,158,,,,,,"Article; Kocaarslan, Azra; Kiskan, Baris; Yagci, Yusuf; Polymer; vol. 122; (2017); p. 340 - 346;",https://www.reaxys.com/reaxys/secured/hopinto.do?context=C&query=CNR.CNR%3D71542422&database=RX&origin=ReaxysOutput&ln=
,B.B.O.O.O,11323267.0,https://www.reaxys.com/reaxys/secured/hopinto.do?context=S&query=IDE.XRN%3D11323267&database=RX&origin=ReaxysOutput&ln=,(522 of 4000),,boron trioxide; boron oxide; boric anhydride; boron(III) oxide; boric oxide; diboron trioxide,B2O3,B2O3,69.6202,Isotope or isotope containing compound; Glass or Ceramic material,,UFXLORKHDVZJBP-UHFFFAOYSA-N,,,,Identification(21); Physical Data(482); Spectra(85),4862.0,2914.0,-272.437,,,,,,"Article; Achour, Abdenour; Chen, Kan; Reece, Michael J.; Huang, Zhaorong; Journal of Alloys and Compounds; vol. 735; (2018); p. 861 - 869;",https://www.reaxys.com/reaxys/secured/hopinto.do?context=C&query=CNR.CNR%3D72651609&database=RX&origin=ReaxysOutput&ln=
,[H]B([H])C.[H]B(C)C,4933317.0,https://www.reaxys.com/reaxys/secured/hopinto.do?context=S&query=IDE.XRN%3D4933317&database=RX&origin=ReaxysOutput&ln=,(526 of 4000),,dimethyl-borane; compound with methylborane; Dimethyl-boran; Verbindung mit Methylboran,C2H7B*CH5B,CH5B*C2H7B,69.7503,acyclic,,CMRVSOSRXNBRAI-UHFFFAOYSA-N,,,,Identification(5); Physical Data(3); Spectra(1),5.0,3.0,-122.9,,,,,,Article; Schlesinger; Walker; Journal of the American Chemical Society; vol. 57; (1935); p. 624;,https://www.reaxys.com/reaxys/secured/hopinto.do?context=C&query=CNR.CNR%3D1251742&database=RX&origin=ReaxysOutput&ln=
,FOOF,13904320.0,https://www.reaxys.com/reaxys/secured/hopinto.do?context=S&query=IDE.XRN%3D13904320&database=RX&origin=ReaxysOutput&ln=,(529 of 4000),7783-44-0,dioxygen difluoride; fluorine peroxide; perfluoroperoxide; fluorine dioxide,O2F2,F2O2,69.9956,,,REAOZOPEJGPVCB-UHFFFAOYSA-N,,,,Identification(29); Physical Data(26); Spectra(3),37.0,131.0,-163.5,,supporting information,,,,"Article; Marx, Rupert; Seppelt, Konrad; Dalton Transactions; vol. 44; 45; (2015); p. 19659 - 19662;",https://www.reaxys.com/reaxys/secured/hopinto.do?context=C&query=CNR.CNR%3D67588778&database=RX&origin=ReaxysOutput&ln=
,FC(F)F,1731035.0,https://www.reaxys.com/reaxys/secured/hopinto.do?context=S&query=IDE.XRN%3D1731035&database=RX&origin=ReaxysOutput&ln=,(530 of 4000),75-46-7,trifluoromethan,HCF3,CHF3,70.0141,acyclic,,XPDWGBQVDMORPB-UHFFFAOYSA-N,,,,Identification(78); Physical Data(416); Spectra(190); Bioactivity(71),1249.0,1308.0,-155.16,,,,,,"Article; Sigurbjoernsson, Omar F.; Firanescu, George; Signorell, Ruth; Physical Chemistry Chemical Physics; vol. 11; 1; (2009); p. 187 - 194;",https://www.reaxys.com/reaxys/secured/hopinto.do?context=C&query=CNR.CNR%3D8763396&database=RX&origin=ReaxysOutput&ln=
,[H]O[H].[H]OO[H],16740858.0,https://www.reaxys.com/reaxys/secured/hopinto.do?context=S&query=IDE.XRN%3D16740858&database=RX&origin=ReaxysOutput&ln=,(531 of 4000),,hydrogen peroxide dihydrate,H2O2*2H2O,2H2O*H2O2,70.0452,,,QOSATHPSBFQAML-UHFFFAOYSA-N,,,,Identification(9); Physical Data(13); Spectra(1),,20.0,-52,,,,,,"Article; Giguere, P. A.; Chin, D.; Canadian Journal of Chemistry; vol. 37; (1959); p. 2064 - 2067;; ; Article; Giguere, P. A.; Secco, E. A.; Canadian Journal of Chemistry; vol. 32; (1954); p. 550 - 556;; ; Article; Gmelin Handbuch der Anorganischen Chemie; vol. O: MVol.7; 145, page 2522 - 2524;; ; Article; Gmelin Handbuch der Anorganischen Chemie; vol. O: MVol.7; 21, page 2202 - 2205;; ; Report; Schumb; Satterfield; Wentworth; Hydrogen peroxide, S. 213; (from Gmelin)",https://www.reaxys.com/reaxys/secured/hopinto.do?context=C&query=CNR.CNR%3D7617948&database=RX&origin=ReaxysOutput&ln=
,OC(=O)C#C,878176.0,https://www.reaxys.com/reaxys/secured/hopinto.do?context=S&query=IDE.XRN%3D878176&database=RX&origin=ReaxysOutput&ln=,(532 of 4000),471-25-0,Propiolic acid; acetylenecarboxylic acid,C2HCO2H,C3H2O2,70.0477,acyclic,,UORVCLMRJXCDCP-UHFFFAOYSA-N,,,,Identification(654); Physical Data(94); Spectra(34); Bioactivity(136),3359.0,2237.0,17.44,,,,,,"Article; Gordon; Volodina; Mikhailov; Russian Journal of Physical Chemistry; vol. 88; 12; (2014); p. 2129 - 2136; Zh. Fiz. Khim.; vol. 88; 12; (2014); p. 1955 - 1962,8;",https://www.reaxys.com/reaxys/secured/hopinto.do?context=C&query=CNR.CNR%3D68261875&database=RX&origin=ReaxysOutput&ln=
,O1C=NN=C1,605620.0,https://www.reaxys.com/reaxys/secured/hopinto.do?context=S&query=IDE.XRN%3D605620&database=RX&origin=ReaxysOutput&ln=,(533 of 4000),288-99-3,"1,3,4-oxadiazole; [1,3,4]oxadiazol",C2H2N2O,C2H2N2O,70.0507,heterocyclic,,FKASFBLJDCHBNZ-UHFFFAOYSA-N,,,,Identification(1286); Physical Data(28); Spectra(30); Bioactivity(65),36.0,1293.0,78 - 82,,,,,,Patent; GLAXOSMITHKLINE PLC; US6506781; (2003); B1;,https://www.reaxys.com/reaxys/secured/hopinto.do?context=C&query=CNR.CNR%3D221651&database=RX&origin=ReaxysOutput&ln=
,O1N=CC=N1,605621.0,https://www.reaxys.com/reaxys/secured/hopinto.do?context=S&query=IDE.XRN%3D605621&database=RX&origin=ReaxysOutput&ln=,(534 of 4000),288-37-9,"furazan; 1,2,5-Oxadiazol; (1,2,5)-oxadiazole; furazane",C2H2N2O,C2H2N2O,70.0507,heterocyclic,,JKFAIQOWCVVSKC-UHFFFAOYSA-N,,,,Identification(358); Physical Data(29); Spectra(42); Bioactivity(20),8.0,385.0,-28,,,,,,"Article; Olofson,R.A.; Michelman,J.S.; Journal of the American Chemical Society; vol. 86; (1964); p. 1863 - 1865;; ; Article; Olofson; Michelman; Journal of Organic Chemistry; vol. 30; (1965); p. 1854,1858;; ; Article; Weinstock et al.; Angewandte Chemie; vol. 79; (1967); p. 315;; ; Article; Bertini; Gazzetta Chimica Italiana; vol. 97; (1967); p. 1870;",https://www.reaxys.com/reaxys/secured/hopinto.do?context=C&query=CNR.CNR%3D53726&database=RX&origin=ReaxysOutput&ln=
,O1C=CN=N1,1071462.0,https://www.reaxys.com/reaxys/secured/hopinto.do?context=S&query=IDE.XRN%3D1071462&database=RX&origin=ReaxysOutput&ln=,(535 of 4000),288-43-7,"1,2,3-oxadiazole; 1,2,3-Oxadiazol",C2H2N2O,C2H2N2O,70.0507,heterocyclic,,WCPAKWJPBJAGKN-UHFFFAOYSA-N,,,,Identification(1925); Physical Data(17); Spectra(11),19.0,1939.0,118 - 119,,,,,,Patent; MERCK &amp; CO INC; US5686463; (1997); A;,https://www.reaxys.com/reaxys/secured/hopinto.do?context=C&query=CNR.CNR%3D7156349&database=RX&origin=ReaxysOutput&ln=
,NC(=O)C#N,1699395.0,https://www.reaxys.com/reaxys/secured/hopinto.do?context=S&query=IDE.XRN%3D1699395&database=RX&origin=ReaxysOutput&ln=,(536 of 4000),4370-12-1,1-cyanoformamide; cyanoformamide,CNCONH2,C2H2N2O,70.0507,acyclic,,YDVJBLJCSLVMSY-UHFFFAOYSA-N,,,,Identification(11); Physical Data(6); Spectra(5),40.0,26.0,58 - 60,,,,,,"Article; Christiansen, Jorn J.; Journal of Molecular Spectroscopy; vol. 231; 2; (2005); p. 131 - 136;",https://www.reaxys.com/reaxys/secured/hopinto.do?context=C&query=CNR.CNR%3D6527320&database=RX&origin=ReaxysOutput&ln=
,O\N=C/C#N,1901827.0,https://www.reaxys.com/reaxys/secured/hopinto.do?context=S&query=IDE.XRN%3D1901827&database=RX&origin=ReaxysOutput&ln=,(537 of 4000),77269-48-8,anti-Cyanformaldoxim,C2H2N2O,C2H2N2O,70.0507,acyclic,,XESMERCPCQXGAI-RQOWECAXSA-N,,,,Identification(8); Physical Data(2); Bioactivity(2),5.0,3.0,83 - 84,,,,,,"Article; Grundmann,C.; Chemische Berichte; vol. 97; (1964); p. 575 - 578;",https://www.reaxys.com/reaxys/secured/hopinto.do?context=C&query=CNR.CNR%3D37618&database=RX&origin=ReaxysOutput&ln=
,O\N=C\C#N,1901828.0,https://www.reaxys.com/reaxys/secured/hopinto.do?context=S&query=IDE.XRN%3D1901828&database=RX&origin=ReaxysOutput&ln=,(538 of 4000),77269-49-9,syn-Cyanformaldoxim,C2H2N2O,C2H2N2O,70.0507,acyclic,,XESMERCPCQXGAI-DUXPYHPUSA-N,,,,Identification(6); Physical Data(2),3.0,1.0,33 - 36,,,,,,"Article; Grundmann,C.; Fulton,M.B.; Chemische Berichte; vol. 97; (1964); p. 566 - 574;",https://www.reaxys.com/reaxys/secured/hopinto.do?context=C&query=CNR.CNR%3D37617&database=RX&origin=ReaxysOutput&ln=
,N1C=NN=N1,105799.0,https://www.reaxys.com/reaxys/secured/hopinto.do?context=S&query=IDE.XRN%3D105799&database=RX&origin=ReaxysOutput&ln=,(539 of 4000),288-94-8,1H-tetrazole; TETRAZOLE,CHN4H,CH2N4,70.0537,heterocyclic,,KJUGUADJHNHALS-UHFFFAOYSA-N,,,,Identification(2475); Physical Data(122); Spectra(61); Bioactivity(170),918.0,3193.0,143.66,acetone,,,,,"Article; Wang, Xiaojun; Liu, Jiping; Wang, Dong; Bi, Xiaolu; Zhao, Wei; Zeitschrift fur Anorganische und Allgemeine Chemie; vol. 641; 3-4; (2015); p. 631 - 635;",https://www.reaxys.com/reaxys/secured/hopinto.do?context=C&query=CNR.CNR%3D65684808&database=RX&origin=ReaxysOutput&ln=
,N1N=CN=N1,506742.0,https://www.reaxys.com/reaxys/secured/hopinto.do?context=S&query=IDE.XRN%3D506742&database=RX&origin=ReaxysOutput&ln=,(540 of 4000),288-94-8,"2H-tetrazole; tetrazole; 1H-tetrazole; 2H-1,2,3,4-tetrazole; 1,2,3,4-2H-tetrazole",CN4H2,CH2N4,70.0537,heterocyclic,,KJUGUADJHNHALS-UHFFFAOYSA-N,,,,Identification(70); Physical Data(7); Spectra(9); Bioactivity(1),143.0,168.0,149 - 154,,,,,,Patent; BRISTOL-MYERS SQUIBB CO; US3757015; (1972); A; Chem.Abstr.; vol. 79; 137174; Chem.Abstr.; vol. 79; 137174;,https://www.reaxys.com/reaxys/secured/hopinto.do?context=C&query=CNR.CNR%3D2640333&database=RX&origin=ReaxysOutput&ln=
,[13CH2]=N[13CH2]C#N,7525111.0,https://www.reaxys.com/reaxys/secured/hopinto.do?context=S&query=IDE.XRN%3D7525111&database=RX&origin=ReaxysOutput&ln=,(541 of 4000),,,C(13)C2H4N2,C3H4N2,70.0562,acyclic,,GFZMFCVDDFHSJK-ZKDXJZICSA-N,,,,Identification(5); Physical Data(1),2.0,1.0,124 - 126,,,,,,"Article; Neugebauer, Witold; Pinet, Eric; Kim, Munsok; Carey, Paul R.; Canadian Journal of Chemistry; vol. 74; 3; (1996); p. 341 - 343;",https://www.reaxys.com/reaxys/secured/hopinto.do?context=C&query=CNR.CNR%3D6020119&database=RX&origin=ReaxysOutput&ln=
,[2H]C1=NNC=N1,606142.0,https://www.reaxys.com/reaxys/secured/hopinto.do?context=S&query=IDE.XRN%3D606142&database=RX&origin=ReaxysOutput&ln=,(542 of 4000),39787-02-5,"3-Deutero-1,2,4-Triazol; 3-deuterio-1H-[1,2,4]triazole",C2H2DN3,C2H3N3,70.058,heterocyclic,,NSPMIYGKQJPBQR-MICDWDOJSA-N,,,,Identification(7); Physical Data(1); Spectra(2),1.0,2.0,119,,,,,,"Article; Maquestiau et al.; Organic Mass Spectrometry; vol. 6; (1972); p. 1139,1143;",https://www.reaxys.com/reaxys/secured/hopinto.do?context=C&query=CNR.CNR%3D2616816&database=RX&origin=ReaxysOutput&ln=
,[2H]C1=NC=NN1,606143.0,https://www.reaxys.com/reaxys/secured/hopinto.do?context=S&query=IDE.XRN%3D606143&database=RX&origin=ReaxysOutput&ln=,(543 of 4000),39787-02-5,"5-Deutero-1,2,4-Triazol; 3-deuterio-1H-[1,2,4]triazole",C2H2DN3,C2H3N3,70.058,heterocyclic,,NSPMIYGKQJPBQR-MICDWDOJSA-N,,,,Identification(7); Physical Data(1); Spectra(1),1.0,1.0,119,,,,,,"Article; Maquestiau et al.; Organic Mass Spectrometry; vol. 6; (1972); p. 1139,1143;",https://www.reaxys.com/reaxys/secured/hopinto.do?context=C&query=CNR.CNR%3D2616816&database=RX&origin=ReaxysOutput&ln=
,[2H]N1C=CN=C1[2H],606139.0,https://www.reaxys.com/reaxys/secured/hopinto.do?context=S&query=IDE.XRN%3D606139&database=RX&origin=ReaxysOutput&ln=,(544 of 4000),,"1,2-Dideutero-imidazol",C3H2(2)H2N2,C3H4N2,70.0623,heterocyclic,,RAXXELZNTBOGNW-AMVILDFXSA-N,,,,Identification(9); Physical Data(4); Spectra(12),9.0,17.0,86.5 - 88,,,,,,Article; Dickens; Dyer; Hamill; et al.; Journal of Organic Chemistry; vol. 46; 9; (1981); p. 1781 - 1786;,https://www.reaxys.com/reaxys/secured/hopinto.do?context=C&query=CNR.CNR%3D5568786&database=RX&origin=ReaxysOutput&ln=
,[15NH]1C=C[15N]=C1,4961967.0,https://www.reaxys.com/reaxys/secured/hopinto.do?context=S&query=IDE.XRN%3D4961967&database=RX&origin=ReaxysOutput&ln=,(545 of 4000),74362-46-2,15N2-imidazole,C3H4(15)N2,C3H4N2,70.0648,heterocyclic; Isotope or isotope containing compound,,RAXXELZNTBOGNW-MQIHXRCWSA-N,,,,Identification(9); Physical Data(9); Spectra(11),14.0,20.0,89 - 90,benzene,,,,,"Article; Alei, M.; Morgan, L. O.; Wageman, W. E.; Whaley, T. W.; Journal of the American Chemical Society; vol. 102; 9; (1980); p. 2881 - 2887;",https://www.reaxys.com/reaxys/secured/hopinto.do?context=C&query=CNR.CNR%3D5628370&database=RX&origin=ReaxysOutput&ln=
,C1OCC=C1,103174.0,https://www.reaxys.com/reaxys/secured/hopinto.do?context=S&query=IDE.XRN%3D103174&database=RX&origin=ReaxysOutput&ln=,(546 of 4000),1708-29-8,"2,5-dihydrofuran; 2,5-dhf; 2,5-dihydrofurane; 3,4-dihydrofuran",C4OH6,C4H6O,70.091,heterocyclic,,ARGCQEVBJHPOGB-UHFFFAOYSA-N,,,,Identification(470); Physical Data(73); Spectra(58); Bioactivity(49),741.0,945.0,-86,,,,,,"Article; Rosso; Carbonnel; Comptes Rendus des Seances de l'Academie des Sciences, Serie C: Sciences Chimiques; vol. 274; (1972); p. 553;",https://www.reaxys.com/reaxys/secured/hopinto.do?context=C&query=CNR.CNR%3D3307896&database=RX&origin=ReaxysOutput&ln=
,OCCC#C,773710.0,https://www.reaxys.com/reaxys/secured/hopinto.do?context=S&query=IDE.XRN%3D773710&database=RX&origin=ReaxysOutput&ln=,(547 of 4000),927-74-2,1-butyn-4-ol; but-3-yn-1-ol; 3-Butyn-1-ol,HC2CH2CH2OH,C4H6O,70.091,acyclic,,OTJZCIYGRUNXTP-UHFFFAOYSA-N,,,,Identification(528); Physical Data(61); Spectra(42); Bioactivity(184),3634.0,3576.0,-63.6,,,,,,Article; Henne; Greenlee; Journal of the American Chemical Society; vol. 67; (1945); p. 484;,https://www.reaxys.com/reaxys/secured/hopinto.do?context=C&query=CNR.CNR%3D1333924&database=RX&origin=ReaxysOutput&ln=
,CC=CC=O,906731.0,https://www.reaxys.com/reaxys/secured/hopinto.do?context=S&query=IDE.XRN%3D906731&database=RX&origin=ReaxysOutput&ln=,(548 of 4000),123-73-9,crotonaldehyde; but-2-enal,CH3CHCHCOH,C4H6O,70.091,acyclic,,MLUCVPSAIODCQM-UHFFFAOYSA-N,,,,Identification(211); Physical Data(197); Spectra(87); Bioactivity(231),4325.0,3568.0,104.5,,,,,,Article; TRABERT; Archiv der Pharmazie; vol. 294 /66; (1961); p. 246 - 254;,https://www.reaxys.com/reaxys/secured/hopinto.do?context=C&query=CNR.CNR%3D103259&database=RX&origin=ReaxysOutput&ln=
,CC(C)=C=O,1098355.0,https://www.reaxys.com/reaxys/secured/hopinto.do?context=S&query=IDE.XRN%3D1098355&database=RX&origin=ReaxysOutput&ln=,(549 of 4000),598-26-5,"dimethylketene; 2-methylprop-1-en-1-one; 1-oxo-2,2-dimethylethylene",(CH3)2CCO,C4H6O,70.091,acyclic,,VDOKWPVSGXHSNP-UHFFFAOYSA-N,,,,Identification(93); Physical Data(21); Spectra(31),441.0,351.0,-97.5,,,,,,Article; Staudinger; Ott; Chemische Berichte; vol. 41; (1908); p. 2211;,https://www.reaxys.com/reaxys/secured/hopinto.do?context=C&query=CNR.CNR%3D1118778&database=RX&origin=ReaxysOutput&ln=
,O=C1CCC1,1560289.0,https://www.reaxys.com/reaxys/secured/hopinto.do?context=S&query=IDE.XRN%3D1560289&database=RX&origin=ReaxysOutput&ln=,(550 of 4000),1191-95-3,cyclobutanone,(CH2)3CO,C4H6O,70.091,isocyclic,,SHQSVMDWKBRBGB-UHFFFAOYSA-N,,,,Identification(653); Physical Data(152); Spectra(85); Bioactivity(3),2571.0,2533.0,185 - 186,dichloromethane,,,,,Article; Yufit; Howard; CrystEngComm; vol. 14; 6; (2012); p. 2003 - 2008;,https://www.reaxys.com/reaxys/secured/hopinto.do?context=C&query=CNR.CNR%3D20130404&database=RX&origin=ReaxysOutput&ln=
,C=COC=C,1733368.0,https://www.reaxys.com/reaxys/secured/hopinto.do?context=S&query=IDE.XRN%3D1733368&database=RX&origin=ReaxysOutput&ln=,(551 of 4000),109-93-3,"1,1'-oxybisethene",CH2CHOCHCH2,C4H6O,70.091,acyclic,,QYKIQEUNHZKYBP-UHFFFAOYSA-N,,,,Identification(314); Physical Data(50); Spectra(46); Bioactivity(23),166.0,453.0,-101.1,,,,,,Article; Dolliver et al.; Journal of the American Chemical Society; vol. 60; (1938); p. 441;,https://www.reaxys.com/reaxys/secured/hopinto.do?context=C&query=CNR.CNR%3D1357686&database=RX&origin=ReaxysOutput&ln=
,CC#CCO,1733676.0,https://www.reaxys.com/reaxys/secured/hopinto.do?context=S&query=IDE.XRN%3D1733676&database=RX&origin=ReaxysOutput&ln=,(552 of 4000),764-01-2,methyl propargyl alcohol; 2-Butyn-1-ol,CH3C2CH2OH,C4H6O,70.091,acyclic,,NEEDEQSZOUAJMU-UHFFFAOYSA-N,,,,Identification(179); Physical Data(62); Spectra(37); Bioactivity(51),975.0,999.0,42 - 46,,,,,,"Article; Hooz, John; Cabezas, Jorge; Musmanni, Sergio; Calzada, Jose; Organic Syntheses; vol. 69; (1990); p. 120 - 120;",https://www.reaxys.com/reaxys/secured/hopinto.do?context=C&query=CNR.CNR%3D71233465&database=RX&origin=ReaxysOutput&ln=
,C1CN=CN1,103920.0,https://www.reaxys.com/reaxys/secured/hopinto.do?context=S&query=IDE.XRN%3D103920&database=RX&origin=ReaxysOutput&ln=,(553 of 4000),504-75-6,2-imidazoline,C3H6N2,C3H6N2,70.094,heterocyclic,,MTNDZQHUAFNZQY-UHFFFAOYSA-N,,,,Identification(1363); Physical Data(9); Spectra(11); Bioactivity(71),43.0,1392.0,53 - 57,,,,,,Article; Edge et al.; Chemistry and industry; (1969); p. 203;,https://www.reaxys.com/reaxys/secured/hopinto.do?context=C&query=CNR.CNR%3D2673136&database=RX&origin=ReaxysOutput&ln=