Structure: Image,SMILES,Substance Identification: Reaxys Registry Number,Links to Reaxys,Data Count,CAS Registry Number,Chemical Name,Linear Structure Formula,Molecular Formula,Molecular Weight,Type of Substance,Type and Modification,InChI Key,Composition: Comp. Name,Composition: Comp. Conc.,Composition: Comp. Attrib.,Field Availability,Number of Reactions,Number of References,Melting Point: Melting Point [C],Solvent (Melting Point),Location,Comment (Melting Point),Crystallizes With,Amount (Melting Point) [mol],References,Links to Reaxys.1
,O=C1NC=CO1,635954.0,https://www.reaxys.com/reaxys/secured/hopinto.do?context=S&query=IDE.XRN%3D635954&database=RX&origin=ReaxysOutput&ln=,(1307 of 4000),27584-70-9,4-oxazolin-2-one; oxazolone; 2-oxazolone; oxazol-2(3H)-one; 3H-oxazol-2-one,C3H3NO2,C3H3NO2,85.0623,heterocyclic,,XYVMOLOUBJBNBF-UHFFFAOYSA-N,,,,Identification(49); Physical Data(6); Spectra(6); Bioactivity(18),73.0,84.0,110 - 111,,,,,,"Article; Tavernier, Dirk; Damme, Sabine van; Ricquier, Patrick; Anteunis, Marc J. O.; Bulletin des Societes Chimiques Belges; vol. 97; 11; (1988); p. 859 - 866;",https://www.reaxys.com/reaxys/secured/hopinto.do?context=C&query=CNR.CNR%3D5725944&database=RX&origin=ReaxysOutput&ln=
,O=C1NOC=C1,1209549.0,https://www.reaxys.com/reaxys/secured/hopinto.do?context=S&query=IDE.XRN%3D1209549&database=RX&origin=ReaxysOutput&ln=,(1308 of 4000),5777-20-8,"Isoxazolin-3-on; 3-Isoxazolon; 3-oxo-2,3-dihydroisoxazole; isoxazolone; isoxazol-3-one",C3H3NO2,C3H3NO2,85.0623,heterocyclic,,FUOSTELFLYZQCW-UHFFFAOYSA-N,,,,Identification(20); Physical Data(1),5.0,23.0,98 - 99,,,,,,Article; Kasahara; Izumi; Chemistry and industry; (1979); p. 318;,https://www.reaxys.com/reaxys/secured/hopinto.do?context=C&query=CNR.CNR%3D3026448&database=RX&origin=ReaxysOutput&ln=
,OC1=CON=C1,4366308.0,https://www.reaxys.com/reaxys/secured/hopinto.do?context=S&query=IDE.XRN%3D4366308&database=RX&origin=ReaxysOutput&ln=,(1309 of 4000),80348-66-9,isoxazol-4-ol,C3H3NO2,C3H3NO2,85.0623,heterocyclic,,ABFBKQBATYREHU-UHFFFAOYSA-N,,,,Identification(12); Physical Data(4); Spectra(10); Bioactivity(2),6.0,10.0,61 - 63,,supporting information,,,,"Article; Morita, Taiki; Fuse, Shinichiro; Nakamura, Hiroyuki; Angewandte Chemie - International Edition; vol. 55; 43; (2016); p. 13580 - 13584; Angew. Chem.; vol. 128; (2016); p. 13778 - 13782;",https://www.reaxys.com/reaxys/secured/hopinto.do?context=C&query=CNR.CNR%3D69783379&database=RX&origin=ReaxysOutput&ln=
,ONC(=O)C#C,20855279.0,https://www.reaxys.com/reaxys/secured/hopinto.do?context=S&query=IDE.XRN%3D20855279&database=RX&origin=ReaxysOutput&ln=,(1310 of 4000),216970-08-0,propynoic acid hydroxyamide; N-hydroxypropiolamide,C3H3NO2,C3H3NO2,85.0623,,,LDBUOFZLCOOVLS-UHFFFAOYSA-N,,,,Identification(8); Physical Data(6); Spectra(10),38.0,6.0,68.9 - 70.9,,Paragraph 0025,,methanol,,Patent; NAGOYA CITY UNIVERSITY; (47 pag.)JP5725475; (2015); B2;,https://www.reaxys.com/reaxys/secured/hopinto.do?context=C&query=CNR.CNR%3D69688362&database=RX&origin=ReaxysOutput&ln=
,O=C1NNC=N1,1838.0,https://www.reaxys.com/reaxys/secured/hopinto.do?context=S&query=IDE.XRN%3D1838&database=RX&origin=ReaxysOutput&ln=,(1311 of 4000),930-33-6,"1,2,4-triazol-3-one; 3-H-1,2-dihydro-1,2,4-triazol-3-one; 1,2-dihydro[1,2,4]triazol-3-one; 1,2-dihydro-3H-1,2,4-triazol-3-one; 1,2,4-Triazol-5-on; 1,2-dihydro-3-H-1,2,4-triazol-2-one; 1,2-Dihydro-[1,2,4]triazol-3-on; 1,2,4-triazol-5(1H)-one",C2H3N3O,C2H3N3O,85.0653,heterocyclic,,LZTSCEYDCZBRCJ-UHFFFAOYSA-N,,,,Identification(22); Physical Data(12); Spectra(1),14.0,29.0,239 - 240,ethanol,,,,,"Article; Kaimanakova, S. I.; Kuleshova, E. F.; Solov'eva, N. P.; Granik, V. G.; Chemistry of Heterocyclic Compounds; vol. 18; 11; (1982); p. 1208 - 1211; Khimiya Geterotsiklicheskikh Soedinenii; vol. 18; 11; (1982); p. 1553 - 1557;",https://www.reaxys.com/reaxys/secured/hopinto.do?context=C&query=CNR.CNR%3D5921580&database=RX&origin=ReaxysOutput&ln=
,NC(=O)C=[N]#N,104253.0,https://www.reaxys.com/reaxys/secured/hopinto.do?context=S&query=IDE.XRN%3D104253&database=RX&origin=ReaxysOutput&ln=,(1312 of 4000),38118-67-1,diazo-acetic acid amide; Diazo-essigsaeure-amid; diazoacetamide; α-diazoacetamide; a-diazoacetamide,C2H3N3O,C2H3N3O,85.0653,acyclic,,GTQFGAJYMBBUSO-UHFFFAOYSA-N,,,,Identification(27); Physical Data(3); Spectra(2); Bioactivity(3),13.0,34.0,114,ethanol,,Decomp.,,,Article; Curtius; Thompson; Chemische Berichte; vol. 39; (1906); p. 4141;,https://www.reaxys.com/reaxys/secured/hopinto.do?context=C&query=CNR.CNR%3D806300&database=RX&origin=ReaxysOutput&ln=
,NC1=NN=CO1,107129.0,https://www.reaxys.com/reaxys/secured/hopinto.do?context=S&query=IDE.XRN%3D107129&database=RX&origin=ReaxysOutput&ln=,(1313 of 4000),3775-60-8,"1,3,4-oxadiazol-2-amine; 2-Amino-1,3,4-oxadiazol; 2-amino-1,3,4-oxadiazole",C2H3N3O,C2H3N3O,85.0653,heterocyclic,,APKZPKINPXTSNL-UHFFFAOYSA-N,,,,Identification(34); Physical Data(20); Spectra(3); Bioactivity(3),22.0,47.0,134 - 141,,Paragraph 0233-0236,,,,Patent; NISSAN CHEMICAL CORPORATION; JP2020/164533; (2020); A;,https://www.reaxys.com/reaxys/secured/hopinto.do?context=C&query=CNR.CNR%3D81344985&database=RX&origin=ReaxysOutput&ln=
,O=C1NNN=C1,107569.0,https://www.reaxys.com/reaxys/secured/hopinto.do?context=S&query=IDE.XRN%3D107569&database=RX&origin=ReaxysOutput&ln=,(1314 of 4000),124531-97-1,"2,3-dihydro-[1,2,3]triazol-4-one; 2,3-Dihydro-[1,2,3]triazol-4-on",C2H3N3O,C2H3N3O,85.0653,heterocyclic,,QEASJVYPHMYPJM-UHFFFAOYSA-N,,,,Identification(6); Physical Data(5),5.0,5.0,130 - 132,ethyl acetate,,,,,"Article; Pedersen; Acta Chemica Scandinavica (1947); vol. 12; (1958); p. 1236,1240;",https://www.reaxys.com/reaxys/secured/hopinto.do?context=C&query=CNR.CNR%3D818097&database=RX&origin=ReaxysOutput&ln=
,OC1=NN=CN1,507017.0,https://www.reaxys.com/reaxys/secured/hopinto.do?context=S&query=IDE.XRN%3D507017&database=RX&origin=ReaxysOutput&ln=,(1315 of 4000),930-33-6,"3-Hydroxy-1,2,4-triazol; 1,2-dihydro-[1,2,4]triazol-3-one; 1,2-dihydro-3H-1,2,4-triazol-3-one",C2H3N3O,C2H3N3O,85.0653,heterocyclic,,LZTSCEYDCZBRCJ-UHFFFAOYSA-N,,,,Identification(6); Physical Data(1); Spectra(1),1.0,1.0,236 - 237,,,,,,Article; Schwan et al.; Journal of Heterocyclic Chemistry; vol. 16; (1979); p. 199;,https://www.reaxys.com/reaxys/secured/hopinto.do?context=C&query=CNR.CNR%3D2614717&database=RX&origin=ReaxysOutput&ln=
,OC1=NNC=N1,507135.0,https://www.reaxys.com/reaxys/secured/hopinto.do?context=S&query=IDE.XRN%3D507135&database=RX&origin=ReaxysOutput&ln=,(1316 of 4000),930-33-6,"3-hydroxy-1H-1,2,4-triazole; 3-Hydroxy-1,2,4-triazol; 1,2-dihydro-[1,2,4]triazol-3-one; 1,2-dihydro-3H-1,2,4-triazol-3-one; 3-hydroxy-1,2,4-triazole",C2H3N3O,C2H3N3O,85.0653,heterocyclic,,LZTSCEYDCZBRCJ-UHFFFAOYSA-N,,,,Identification(8); Physical Data(1),3.0,5.0,234 - 236,,,,,,"Article; Werber et al.; Ricerca Scientifica; vol. 36; 5; (1966); p. 332,333,334; Chem.Abstr.; vol. 65; 7169g; (1966);",https://www.reaxys.com/reaxys/secured/hopinto.do?context=C&query=CNR.CNR%3D2808383&database=RX&origin=ReaxysOutput&ln=
,O=C1NC=NN1,605931.0,https://www.reaxys.com/reaxys/secured/hopinto.do?context=S&query=IDE.XRN%3D605931&database=RX&origin=ReaxysOutput&ln=,(1317 of 4000),930-33-6,"2,4-dihydro-1,2,4-triazol-3-one; 2,4-dihydro-3H-1,2,4-triazol-3-one; 4,5-dihydro-1H-1,2,4-triazol-5-one; 1,4-dihydro-1,2,4-triazol-5-one; 3-oxo-2,3-dihydro-4H-1,2,4-triazole",C2H3N3O,C2H3N3O,85.0653,heterocyclic,,LZTSCEYDCZBRCJ-UHFFFAOYSA-N,,,,Identification(55); Physical Data(18); Spectra(17),54.0,89.0,234 - 236,,Paragraph 0224; 0238,,,,Patent; HOKKO CHEMICAL INDUSTRY CO LTD; US2020/367499; (2020); A1;,https://www.reaxys.com/reaxys/secured/hopinto.do?context=C&query=CNR.CNR%3D81772928&database=RX&origin=ReaxysOutput&ln=
,NC(=O)C1N=N1,636055.0,https://www.reaxys.com/reaxys/secured/hopinto.do?context=S&query=IDE.XRN%3D636055&database=RX&origin=ReaxysOutput&ln=,(1318 of 4000),,Diazirin-3-carboxamid; 3H-diazirine-3-carboxylic acid amide,C2H3N3O,C2H3N3O,85.0653,heterocyclic,,QVPQRLNFTOMDHN-UHFFFAOYSA-N,,,,Identification(6); Physical Data(1); Spectra(3),1.0,1.0,110 - 120,,,,,,"Article; Franich,R.A. et al.; Journal of the Chemical Society. Perkin transactions I; (1972); p. 2034 - 2041;",https://www.reaxys.com/reaxys/secured/hopinto.do?context=C&query=CNR.CNR%3D155053&database=RX&origin=ReaxysOutput&ln=
,NC1=NOC=N1,774154.0,https://www.reaxys.com/reaxys/secured/hopinto.do?context=S&query=IDE.XRN%3D774154&database=RX&origin=ReaxysOutput&ln=,(1319 of 4000),39512-64-6,"1,2,4-oxadiazol-3-amine; 2-Amino-1,2,4-oxadiazol; [1,2,4]oxadiazol-3-ylamine",C2H3N3O,C2H3N3O,85.0653,heterocyclic,,XWESVPXIDGLPNX-UHFFFAOYSA-N,,,,Identification(12); Physical Data(2),8.0,8.0,112 - 114,,,,,,"Article; Gregory,G.I. et al.; Journal of the Chemical Society. Perkin transactions I; (1973); p. 47 - 51;",https://www.reaxys.com/reaxys/secured/hopinto.do?context=C&query=CNR.CNR%3D155279&database=RX&origin=ReaxysOutput&ln=
,NNC(=O)C#N,1923181.0,https://www.reaxys.com/reaxys/secured/hopinto.do?context=S&query=IDE.XRN%3D1923181&database=RX&origin=ReaxysOutput&ln=,(1320 of 4000),41916-77-2,cyanoethanoic acid hydrazide; Cyanoacethydrazid,C2H3N3O,C2H3N3O,85.0653,acyclic,,MFOBKQAGVZYMON-UHFFFAOYSA-N,,,,Identification(9); Physical Data(3); Spectra(2),3.0,5.0,105 - 106,,,,,,"Article; Jart; Acta Polytechnica Scandinavica, Chemistry Including Metallurgy Series; vol. 42; (1965); p. 1,9,24;",https://www.reaxys.com/reaxys/secured/hopinto.do?context=C&query=CNR.CNR%3D4291306&database=RX&origin=ReaxysOutput&ln=
,ON1C=CN=N1,5919061.0,https://www.reaxys.com/reaxys/secured/hopinto.do?context=S&query=IDE.XRN%3D5919061&database=RX&origin=ReaxysOutput&ln=,(1321 of 4000),116932-70-8,"1-hydroxy-1,2,3-triazole; hydroxy-triazole; N-hydroxytriazole; 1-hydroxytriazole; triazolylalcohol",C2H3N3O,C2H3N3O,85.0653,heterocyclic,,FQKFPGMGQXQHLP-UHFFFAOYSA-N,,,,Identification(20); Physical Data(1); Spectra(5),13.0,24.0,93,acetone,,,,,"Article; Begtrup, Mikael; Vedso, Per; Journal of the Chemical Society. Perkin transactions I; 3; (1995); p. 243 - 248;",https://www.reaxys.com/reaxys/secured/hopinto.do?context=C&query=CNR.CNR%3D5945602&database=RX&origin=ReaxysOutput&ln=
,ON1C=NC=N1,7125866.0,https://www.reaxys.com/reaxys/secured/hopinto.do?context=S&query=IDE.XRN%3D7125866&database=RX&origin=ReaxysOutput&ln=,(1322 of 4000),,"1-hydroxy-1,2,4-triazole",C2H3N3O,C2H3N3O,85.0653,heterocyclic,,NYRKTKSMKOYEOO-UHFFFAOYSA-N,,,,Identification(7); Physical Data(1),1.0,4.0,132,,,,,,Patent; BASF SE; US5120756; (1992); A;,https://www.reaxys.com/reaxys/secured/hopinto.do?context=C&query=CNR.CNR%3D165621&database=RX&origin=ReaxysOutput&ln=
,N\C(=N\O)C#N,9899259.0,https://www.reaxys.com/reaxys/secured/hopinto.do?context=S&query=IDE.XRN%3D9899259&database=RX&origin=ReaxysOutput&ln=,(1323 of 4000),,α-amino-α-hydroxyiminoacetonitrile,C2H3N3O,C2H3N3O,85.0653,acyclic,,YURQPGVFJJHBCK-UHFFFAOYSA-N,,,,Identification(6); Physical Data(2); Spectra(3),,1.0,79 - 81,,,,,,Article; Sheremetev; Shamshina; Russian Chemical Bulletin; vol. 53; 5; (2004); p. 1124 - 1125;,https://www.reaxys.com/reaxys/secured/hopinto.do?context=C&query=CNR.CNR%3D6483054&database=RX&origin=ReaxysOutput&ln=
,NC1=CON=N1,14631508.0,https://www.reaxys.com/reaxys/secured/hopinto.do?context=S&query=IDE.XRN%3D14631508&database=RX&origin=ReaxysOutput&ln=,(1324 of 4000),110925-99-0,amino oxadiazole,C2H3N3O,C2H3N3O,85.0653,,,WHLAXDUXKMECTM-UHFFFAOYSA-N,,,,Identification(32); Physical Data(3); Spectra(1),5.0,29.0,158 - 160,,,,,,Patent; MERCK &amp; CO INC; US5686463; (1997); A;,https://www.reaxys.com/reaxys/secured/hopinto.do?context=C&query=CNR.CNR%3D7156349&database=RX&origin=ReaxysOutput&ln=
,OC1=CNN=N1,15727214.0,https://www.reaxys.com/reaxys/secured/hopinto.do?context=S&query=IDE.XRN%3D15727214&database=RX&origin=ReaxysOutput&ln=,(1325 of 4000),106377-28-0; 124531-94-8; 124531-95-9; 124531-97-1,triazolyl alcohol,C2H3N3O,C2H3N3O,85.0653,,,QEASJVYPHMYPJM-UHFFFAOYSA-N,,,,Identification(11); Physical Data(1); Spectra(2),1.0,8.0,90 - 92,,,,,,Patent; AKZO NOBEL NV; US4871389; (1989); A;,https://www.reaxys.com/reaxys/secured/hopinto.do?context=C&query=CNR.CNR%3D85737&database=RX&origin=ReaxysOutput&ln=
,NC1=NN=NN1,108872.0,https://www.reaxys.com/reaxys/secured/hopinto.do?context=S&query=IDE.XRN%3D108872&database=RX&origin=ReaxysOutput&ln=,(1326 of 4000),4418-61-5,5-aminotetrazole,HN4CNH2,CH3N5,85.0683,heterocyclic,,ULRPISSMEBPJLN-UHFFFAOYSA-N,,,,Identification(459); Physical Data(64); Spectra(46); Bioactivity(63),2120.0,1132.0,212 - 214,,supporting information,,,,"Article; Behloul, Cherif; Bouchelouche, Kenza; Guijarro, David; Foubelo, Francisco; Nájera, Carmen; Yus, Miguel; Synlett; vol. 26; 17; (2015); p. 2399 - 2402;; ; Article; Behloul, Cherif; Bouchelouche, Kenza; Hadji, Yasmine; Benseghir, Saadia; Guijarro, David; Nájera, Carmen; Yus, Miguel; Synthesis; vol. 48; 15; (2016); p. 2455 - 2460;",https://www.reaxys.com/reaxys/secured/hopinto.do?context=C&query=CNR.CNR%3D67271861&database=RX&origin=ReaxysOutput&ln=
,NN1C=NN=N1,606279.0,https://www.reaxys.com/reaxys/secured/hopinto.do?context=S&query=IDE.XRN%3D606279&database=RX&origin=ReaxysOutput&ln=,(1327 of 4000),5378-49-4,1-aminotetrazole; 1-amino-5H-tetrazole; 1-Amino-tetrazol,CH3N5,CH3N5,85.0683,heterocyclic,,KNRUQUSSDKZTSQ-UHFFFAOYSA-N,,,,Identification(89); Physical Data(15); Spectra(17),35.0,99.0,8 - 10,,,,,,"Article; Gaponik, P. N.; Karavai, V. P.; Chemistry of Heterocyclic Compounds; vol. 19; 6; (1983); p. 681 - 682; Khimiya Geterotsiklicheskikh Soedinenii; vol. 19; 6; (1983); p. 841 - 842;",https://www.reaxys.com/reaxys/secured/hopinto.do?context=C&query=CNR.CNR%3D5559894&database=RX&origin=ReaxysOutput&ln=
,[2H]C1=NN=NN1C,1100372.0,https://www.reaxys.com/reaxys/secured/hopinto.do?context=S&query=IDE.XRN%3D1100372&database=RX&origin=ReaxysOutput&ln=,(1328 of 4000),,1-Methyltetrazol-5d; 5-deuterio-1-methyl-1H-tetrazole,C2H3DN4,C2H4N4,85.0726,heterocyclic,,OMAFFHIGWTVZOH-VMNATFBRSA-N,,,,Identification(6); Physical Data(1),2.0,1.0,37.5 - 39,,,,,,"Article; Kohn et al.; Journal of the American Chemical Society; vol. 94; (1972); p. 5759,5761;",https://www.reaxys.com/reaxys/secured/hopinto.do?context=C&query=CNR.CNR%3D2976538&database=RX&origin=ReaxysOutput&ln=
,CC1=NN=N[15NH]1,4966983.0,https://www.reaxys.com/reaxys/secured/hopinto.do?context=S&query=IDE.XRN%3D4966983&database=RX&origin=ReaxysOutput&ln=,(1329 of 4000),,5-methyl-<1-(15)N>tetrazole,C2H4N3(15)N,C2H4N4,85.0739,heterocyclic,,XZGLNCKSNVGDNX-LBPDFUHNSA-N,,,,Identification(7); Physical Data(1); Spectra(1),,1.0,145 - 146,,,,,,"Article; Razynska, Anna; Tempczyk, Anna; Malinski, Edmund; Szafranek, Janusz; Grzonka, Zbigniew; Hermann, Peter; Journal of the Chemical Society. Perkin transactions II; (1983); p. 379 - 384;",https://www.reaxys.com/reaxys/secured/hopinto.do?context=C&query=CNR.CNR%3D5603608&database=RX&origin=ReaxysOutput&ln=
,NC1=NC=[15N]N1,8899181.0,https://www.reaxys.com/reaxys/secured/hopinto.do?context=S&query=IDE.XRN%3D8899181&database=RX&origin=ReaxysOutput&ln=,(1330 of 4000),367498-28-0,"1-15N-3-amino-1,2,4-triazole",C2H4N3(15)N,C2H4N4,85.0739,heterocyclic,,KLSJWNVTNUYHDU-HOSYLAQJSA-N,,,,Identification(7); Physical Data(1); Spectra(2),4.0,2.0,138 - 141,ethyl acetate,,,,,Article; Chupakhin; Ulomsky; Deev; Rusinov; Synthetic Communications; vol. 31; 15; (2001); p. 2351 - 2355;,https://www.reaxys.com/reaxys/secured/hopinto.do?context=C&query=CNR.CNR%3D6304702&database=RX&origin=ReaxysOutput&ln=
,CN.[H]O[H],3662865.0,https://www.reaxys.com/reaxys/secured/hopinto.do?context=S&query=IDE.XRN%3D3662865&database=RX&origin=ReaxysOutput&ln=,(1332 of 4000),64840-60-4,methylamine; hydrate; Methylamin; Hydrat,CH5N*3H2O,CH5N*3H2O,85.1032,acyclic,,LFETXMWECUPHJA-UHFFFAOYSA-N,,,,Identification(5); Physical Data(1),,1.0,-35.8,,,,,,Article; Pickering; Journal of the Chemical Society; vol. 63; (1893); p. 148;,https://www.reaxys.com/reaxys/secured/hopinto.do?context=C&query=CNR.CNR%3D1210348&database=RX&origin=ReaxysOutput&ln=
,O=C1CCCN1,105241.0,https://www.reaxys.com/reaxys/secured/hopinto.do?context=S&query=IDE.XRN%3D105241&database=RX&origin=ReaxysOutput&ln=,(1333 of 4000),616-45-5,2-pyrrolidinon; 2-pyrrolidone,HNC4H6O,C4H7NO,85.1057,heterocyclic,,HNJBEVLQSNELDL-UHFFFAOYSA-N,,,,Identification(2450); Physical Data(574); Spectra(203); Bioactivity(274),3041.0,4847.0,122,,supporting information,,,,"Article; Grünwald, Annette; Orth, Nicole; Scheurer, Andreas; Heinemann, Frank W.; Pöthig, Alexander; Munz, Dominik; Angewandte Chemie - International Edition; vol. 57; 49; (2018); p. 16228 - 16232; Angew. Chem.; vol. 130; 49; (2018); p. 16463 - 16467,5;",https://www.reaxys.com/reaxys/secured/hopinto.do?context=C&query=CNR.CNR%3D75381173&database=RX&origin=ReaxysOutput&ln=
,CC=CC(N)=O,506110.0,https://www.reaxys.com/reaxys/secured/hopinto.do?context=S&query=IDE.XRN%3D506110&database=RX&origin=ReaxysOutput&ln=,(1334 of 4000),23350-58-5,crotonamide; Crotonsaeureamid; Crotonamid,CH3CHCHC(O)NH2,C4H7NO,85.1057,acyclic,,NQQRXZOPZBKCNF-UHFFFAOYSA-N,,,,Identification(19); Physical Data(15); Spectra(8),62.0,57.0,157,benzene,,,,,"Article; Michurin,A.A.; Zil'berman,E.M.; Journal of Organic Chemistry USSR (English Translation); vol. 1; (1965); p. 711 - 713; Zhurnal Organicheskoi Khimii; vol. 1; 4; (1965); p. 711 - 714;",https://www.reaxys.com/reaxys/secured/hopinto.do?context=C&query=CNR.CNR%3D273618&database=RX&origin=ReaxysOutput&ln=
,CC(C)(O)C#N,605391.0,https://www.reaxys.com/reaxys/secured/hopinto.do?context=S&query=IDE.XRN%3D605391&database=RX&origin=ReaxysOutput&ln=,(1335 of 4000),75-86-5,2-hydroxy-2-methylpropanenitrile; acetone cyanohydrin; acetone cyanohydrine; acetone cyanhydrin; 2-hydroxy-2-methyl-propionitrile; α-hydroxy-isobutyronitrile,(CH3)2C(OH)(CN),C4H7NO,85.1057,acyclic,,MWFMGBPGAXYFAR-UHFFFAOYSA-N,,,,Identification(450); Physical Data(45); Spectra(21); Bioactivity(91),3141.0,1726.0,-19,,,,,,Article; Ultee; Recueil des Travaux Chimiques des Pays-Bas; vol. 28; (1909); p. 11; Chemische Berichte; vol. 39; (1906); p. 1858;,https://www.reaxys.com/reaxys/secured/hopinto.do?context=C&query=CNR.CNR%3D1454491&database=RX&origin=ReaxysOutput&ln=
,CC(=C)C(N)=O,605397.0,https://www.reaxys.com/reaxys/secured/hopinto.do?context=S&query=IDE.XRN%3D605397&database=RX&origin=ReaxysOutput&ln=,(1336 of 4000),79-39-0,Methacrylamide; Methacrylamid; metacrylamide,CH2C(CH3)CONH2,C4H7NO,85.1057,acyclic,,FQPSGWSUVKBHSU-UHFFFAOYSA-N,,,,Identification(1150); Physical Data(50); Spectra(26); Bioactivity(75),371.0,1452.0,111,,,,,,Article; Krul'; Yakimtsova; Egorova; Matusevich; Polikarpov; Russian Journal of Applied Chemistry; vol. 84; 5; (2011); p. 859 - 866;,https://www.reaxys.com/reaxys/secured/hopinto.do?context=C&query=CNR.CNR%3D9077871&database=RX&origin=ReaxysOutput&ln=
,CC(=CN)C=O,773749.0,https://www.reaxys.com/reaxys/secured/hopinto.do?context=S&query=IDE.XRN%3D773749&database=RX&origin=ReaxysOutput&ln=,(1337 of 4000),30989-81-2,3-amino-2-methylacrolein,C4H7NO,C4H7NO,85.1057,acyclic,,OEZAAXHZEMTBOV-UHFFFAOYSA-N,,,,Identification(9); Physical Data(2); Spectra(2),9.0,13.0,113 - 114,ethyl acetate,,,,,"Article; Breitmaier,E.; Gassenmann,S.; Chemische Berichte; vol. 104; (1971); p. 665 - 667;",https://www.reaxys.com/reaxys/secured/hopinto.do?context=C&query=CNR.CNR%3D40819&database=RX&origin=ReaxysOutput&ln=
,CC(C)N=C=O,969356.0,https://www.reaxys.com/reaxys/secured/hopinto.do?context=S&query=IDE.XRN%3D969356&database=RX&origin=ReaxysOutput&ln=,(1338 of 4000),1795-48-8,Isopropyl isocyanate; 2-isocyanato-propane,OCNCH(CH3)2,C4H7NO,85.1057,acyclic,,GSLTVFIVJMCNBH-UHFFFAOYSA-N,,,,Identification(134); Physical Data(23); Spectra(27); Bioactivity(71),2131.0,1381.0,67,,,,,,"Article; Fuks,R.; Hartemink,M.; Tetrahedron; vol. 29; (1973); p. 297 - 299;",https://www.reaxys.com/reaxys/secured/hopinto.do?context=C&query=CNR.CNR%3D91319&database=RX&origin=ReaxysOutput&ln=