Structure: Image,SMILES,Substance Identification: Reaxys Registry Number,Links to Reaxys,Data Count,CAS Registry Number,Chemical Name,Linear Structure Formula,Molecular Formula,Molecular Weight,Type of Substance,Type and Modification,InChI Key,Composition: Comp. Name,Composition: Comp. Conc.,Composition: Comp. Attrib.,Field Availability,Number of Reactions,Number of References,Melting Point: Melting Point [C],Solvent (Melting Point),Location,Comment (Melting Point),Crystallizes With,Amount (Melting Point) [mol],References,Links to Reaxys.1
,CN.[H]B([H])[H],3904511.0,https://www.reaxys.com/reaxys/secured/hopinto.do?context=S&query=IDE.XRN%3D3904511&database=RX&origin=ReaxysOutput&ln=,(165 of 4000),,methylamine borane,H3B*NH2CH3,BH3*CH5N,44.8922,acyclic; Coordination compound,,UWFBNDCJKXSUON-UHFFFAOYSA-N,,,,Identification(122); Physical Data(9); Spectra(21),48.0,165.0,55 - 57,,,,,,"Article; Jaska, Cory A.; Temple, Karen; Lough, Alan J.; Manners, Ian; Journal of the American Chemical Society; vol. 125; 31; (2003); p. 9424 - 9434;",https://www.reaxys.com/reaxys/secured/hopinto.do?context=C&query=CNR.CNR%3D6412552&database=RX&origin=ReaxysOutput&ln=
,FC#N,1697295.0,https://www.reaxys.com/reaxys/secured/hopinto.do?context=S&query=IDE.XRN%3D1697295&database=RX&origin=ReaxysOutput&ln=,(166 of 4000),1495-50-7,cyanogen fluoride; Fluorcyan; Cyanfluorid; Cyanogenfluorid; Fluorcyanid,FCN,CFN,45.0161,acyclic,,CPPKAGUPTKIMNP-UHFFFAOYSA-N,,,,Identification(87); Physical Data(121); Spectra(27); Bioactivity(17),76.0,308.0,-69,,,,,,"Article; Makarov,S.P. et al.; Doklady Chemistry; vol. 141; 2; (1961); p. 1130 - 1133; Doklady Akademii Nauk SSSR; vol. 141; 2; (1961); p. 357 - 360;; ; Article; Makarov,S.P. et al.; Journal of general chemistry of the USSR; vol. 38; 4; (1968); p. 685 - 690; Zhurnal Obshchei Khimii; vol. 38; 4; (1968); p. 709 - 715;; ; Article; Makarow et al.; Doklady Akademii Nauk SSSR; vol. 141; (1961); p. 357,360; Doklady Chemistry; 136-141&lt;1961&gt;1130, 1132;",https://www.reaxys.com/reaxys/secured/hopinto.do?context=C&query=CNR.CNR%3D245534&database=RX&origin=ReaxysOutput&ln=
,NC=O,505995.0,https://www.reaxys.com/reaxys/secured/hopinto.do?context=S&query=IDE.XRN%3D505995&database=RX&origin=ReaxysOutput&ln=,(167 of 4000),77287-34-4; 77287-35-5; 60100-09-6,formamide,OCHNH2,CH3NO,45.0409,acyclic,,ZHNUHDYFZUAESO-UHFFFAOYSA-N,,,,Identification(1122); Physical Data(1182); Spectra(233); Bioactivity(329),7378.0,6183.0,2.5,,,,,,"Article; Phadke, Satyajit; Amara, Samia; Anouti, Mérièm; ChemPhysChem; vol. 18; 17; (2017); p. 2364 - 2373;",https://www.reaxys.com/reaxys/secured/hopinto.do?context=C&query=CNR.CNR%3D72008420&database=RX&origin=ReaxysOutput&ln=
,[2H]N=NC,1919987.0,https://www.reaxys.com/reaxys/secured/hopinto.do?context=S&query=IDE.XRN%3D1919987&database=RX&origin=ReaxysOutput&ln=,(168 of 4000),34994-49-5,Deuteromethyldiimid; N-Deuterio-trans-methyldiazen; N-Deuteriomethyldiazen,CH3DN2,CH4N2,45.0482,acyclic,,JYXPWUYLZPYOAH-DYCDLGHISA-N,,,,Identification(5); Physical Data(2); Spectra(4),1.0,3.0,-122,,,,,,"Article; Ackermann et al.; Inorganic Chemistry; vol. 11; (1972); p. 3076,3077;",https://www.reaxys.com/reaxys/secured/hopinto.do?context=C&query=CNR.CNR%3D4276866&database=RX&origin=ReaxysOutput&ln=
,CCN,505933.0,https://www.reaxys.com/reaxys/secured/hopinto.do?context=S&query=IDE.XRN%3D505933&database=RX&origin=ReaxysOutput&ln=,(169 of 4000),75-04-7,ethylamine; monoethylamine,(C2H5)NH2,C2H7N,45.0843,acyclic,,QUSNBJAOOMFDIB-UHFFFAOYSA-N,,,,Identification(3038); Physical Data(526); Spectra(99); Bioactivity(758),13861.0,14113.0,-72,,,Crystallization with 0.5 Mol(s) H2O,,,"Article; Mootz, Dietrich; Born, Michael; Zeitschrift fur Naturforschung, B: Chemical Sciences; vol. 49; 2; (1994); p. 243 - 249;",https://www.reaxys.com/reaxys/secured/hopinto.do?context=C&query=CNR.CNR%3D5857211&database=RX&origin=ReaxysOutput&ln=
,CNC,605257.0,https://www.reaxys.com/reaxys/secured/hopinto.do?context=S&query=IDE.XRN%3D605257&database=RX&origin=ReaxysOutput&ln=,(170 of 4000),124-40-3,dimethyl amine; N-methylmethanamine,N(CH3)2H,C2H7N,45.0843,acyclic,,ROSDSFDQCJNGOL-UHFFFAOYSA-N,,,,Identification(927); Physical Data(556); Spectra(114); Bioactivity(1164),33442.0,22592.0,302 - 304,"N,N-dimethyl-formamide",,,,,Article; Osyanin; Popova; Klimochkin; Russian Journal of Organic Chemistry; vol. 47; 6; (2011); p. 958 - 959;,https://www.reaxys.com/reaxys/secured/hopinto.do?context=C&query=CNR.CNR%3D20002581&database=RX&origin=ReaxysOutput&ln=
,[O]N=O,4362013.0,https://www.reaxys.com/reaxys/secured/hopinto.do?context=S&query=IDE.XRN%3D4362013&database=RX&origin=ReaxysOutput&ln=,(172 of 4000),10102-44-0,Nitrogen dioxide; nitric dioxide,ONO,NO2,46.0055,Coordination compound; Isotope or isotope containing compound,,JCXJVPUVTGWSNB-UHFFFAOYSA-N,,,,Identification(97); Physical Data(709); Spectra(213); Bioactivity(197),1612.0,3848.0,-11,,,,,,"Article; Dixon-Warren, St. J.; Jackson, R. C.; Polanyi, J. C.; Rieley, H.; Shapter, J. G.; Weiss, H.; Journal of Physical Chemistry; vol. 96; 26; (1992); p. 10983 - 10994; (from Gmelin)",https://www.reaxys.com/reaxys/secured/hopinto.do?context=C&query=CNR.CNR%3D5719236&database=RX&origin=ReaxysOutput&ln=
,[H]C(O)=O,1209246.0,https://www.reaxys.com/reaxys/secured/hopinto.do?context=S&query=IDE.XRN%3D1209246&database=RX&origin=ReaxysOutput&ln=,(173 of 4000),64-18-6,formic acid,CHOOH,CH2O2,46.0257,acyclic,,BDAGIHXWWSANSR-UHFFFAOYSA-N,,,,Identification(6038); Physical Data(2145); Spectra(281); Bioactivity(1436),30705.0,26256.0,8.4,,,,,,"Patent; STATE UNIVERSITY SYSTEM OF FLORIDA; UNIVERSITY OF MICHIGAN; US2003/224006; (2003); A1;; ; Patent; Boitano, Suzanne M.; US2006/40002; (2006); A1;; ; Article; Timmermans; Hennaut-Roland; Journal de Chimie Physique et de Physico-Chimie Biologique; vol. 27; (1930); p. 429;; ; Article; Davidson; Ramskill; Journal of the American Chemical Society; vol. 63; (1941); p. 1223;; ; Article; Turner; Pollard; Journal of the Chemical Society; vol. 105; (1914); p. 1754;; ; Article; Stewart; Mathews; Canadian Journal of Chemistry; vol. 38; (1960); p. 602,604;",https://www.reaxys.com/reaxys/secured/hopinto.do?context=C&query=CNR.CNR%3D241422&database=RX&origin=ReaxysOutput&ln=
,FC=C,1731574.0,https://www.reaxys.com/reaxys/secured/hopinto.do?context=S&query=IDE.XRN%3D1731574&database=RX&origin=ReaxysOutput&ln=,(174 of 4000),75-02-5,1-fluoroethylene,H2CCHF,C2H3F,46.0442,acyclic,,XUCNUKMRBVNAPB-UHFFFAOYSA-N,,,,Identification(342); Physical Data(98); Spectra(71); Bioactivity(40),305.0,760.0,-161,,,,,,"Article; Liebig; Ulm; Chemiker-Zeitung; vol. 99; (1975); p. 477,480;",https://www.reaxys.com/reaxys/secured/hopinto.do?context=C&query=CNR.CNR%3D4119625&database=RX&origin=ReaxysOutput&ln=
,CCO,1718733.0,https://www.reaxys.com/reaxys/secured/hopinto.do?context=S&query=IDE.XRN%3D1718733&database=RX&origin=ReaxysOutput&ln=,(175 of 4000),64-17-5,ethanol; Ethyl alcohol,HOC2H5,C2H6O,46.069,acyclic,,LFQSCWFLJHTTHZ-UHFFFAOYSA-N,,,,Identification(37584); Physical Data(6153); Spectra(420); Bioactivity(10102),114047.0,121263.0,-114.1,,,,,,Patent; AMGEN INC; US2008/75777; (2008); A1;,https://www.reaxys.com/reaxys/secured/hopinto.do?context=C&query=CNR.CNR%3D459428&database=RX&origin=ReaxysOutput&ln=
,COC,1730743.0,https://www.reaxys.com/reaxys/secured/hopinto.do?context=S&query=IDE.XRN%3D1730743&database=RX&origin=ReaxysOutput&ln=,(176 of 4000),115-10-6,Dimethyl ether; METHYL ETHER,O(CH3)2,C2H6O,46.069,acyclic,,LCGLNKUTAGEVQW-UHFFFAOYSA-N,,,,Identification(1388); Physical Data(746); Spectra(157); Bioactivity(166),1221.0,3242.0,-20,,,Crystallization with 17 Mol(s) H2O,,,"Article; Udachin, Konstantin A.; Ratcliffe, Christopher I.; Ripmeester, John A.; Angewandte Chemie - International Edition; vol. 40; 7; (2001); p. 1303 - 1305;",https://www.reaxys.com/reaxys/secured/hopinto.do?context=C&query=CNR.CNR%3D6278047&database=RX&origin=ReaxysOutput&ln=
,CNN,635645.0,https://www.reaxys.com/reaxys/secured/hopinto.do?context=S&query=IDE.XRN%3D635645&database=RX&origin=ReaxysOutput&ln=,(177 of 4000),60-34-4,methylhydrazine; Monomethylhydrazine,H2NNH(CH3),CH6N2,46.072,acyclic,,HDZGCSFEDULWCS-UHFFFAOYSA-N,,,,Identification(987); Physical Data(107); Spectra(54); Bioactivity(253),7195.0,4951.0,-52,,Paragraph 0128,,,,Patent; SOGANG UNIVERSITY; US2015/94490; (2015); A1;,https://www.reaxys.com/reaxys/secured/hopinto.do?context=C&query=CNR.CNR%3D65919339&database=RX&origin=ReaxysOutput&ln=
,[2H]N(C)C,1731242.0,https://www.reaxys.com/reaxys/secured/hopinto.do?context=S&query=IDE.XRN%3D1731242&database=RX&origin=ReaxysOutput&ln=,(178 of 4000),917-72-6,deuterio-dimethyl-amine; N-Deutero-dimethylamin,(2)HN(CH3)2,C2H7N,46.0763,acyclic,,ROSDSFDQCJNGOL-DYCDLGHISA-N,,,,Identification(6); Physical Data(19); Spectra(15),16.0,38.0,-91.1,,,,,,Article; Roberts; Emeleus; Briscoe; Journal of the Chemical Society; (1939); p. 49;,https://www.reaxys.com/reaxys/secured/hopinto.do?context=C&query=CNR.CNR%3D1230952&database=RX&origin=ReaxysOutput&ln=
,C[15NH]C,1900283.0,https://www.reaxys.com/reaxys/secured/hopinto.do?context=S&query=IDE.XRN%3D1900283&database=RX&origin=ReaxysOutput&ln=,(179 of 4000),2876-06-4,15N-Dimethylamin; Dimethylamin-(15)N,H(15)N(CH3)2,C2H7N,46.0776,acyclic,,ROSDSFDQCJNGOL-LBPDFUHNSA-N,,,,Identification(6); Physical Data(8); Spectra(4),14.0,19.0,-96,,,,,,Article; Alei; Jr. et al.; Journal of Physical Chemistry; vol. 75; (1971); p. 932;,https://www.reaxys.com/reaxys/secured/hopinto.do?context=C&query=CNR.CNR%3D3984918&database=RX&origin=ReaxysOutput&ln=
,C[SiH3],1730728.0,https://www.reaxys.com/reaxys/secured/hopinto.do?context=S&query=IDE.XRN%3D1730728&database=RX&origin=ReaxysOutput&ln=,(180 of 4000),992-94-9,methylsilane,SiH3(CH3),CH6Si,46.1441,acyclic,,UIUXUFNYAYAMOE-UHFFFAOYSA-N,,,,Identification(356); Physical Data(98); Spectra(70),187.0,605.0,-156.81,,,,,,Article; Tannenbaum; Kaye; Lewenz; Journal of the American Chemical Society; vol. 75; (1953); p. 3756;,https://www.reaxys.com/reaxys/secured/hopinto.do?context=C&query=CNR.CNR%3D1250647&database=RX&origin=ReaxysOutput&ln=
,[2H]C(O)=O,1737963.0,https://www.reaxys.com/reaxys/secured/hopinto.do?context=S&query=IDE.XRN%3D1737963&database=RX&origin=ReaxysOutput&ln=,(181 of 4000),917-71-5,deuterated formic acid; α-deuterioformic acid; formic-d acid; formic acid-d,CH(2)HO2,CH2O2,47.0177,acyclic,,BDAGIHXWWSANSR-MICDWDOJSA-N,,,,Identification(18); Physical Data(77); Spectra(46),83.0,194.0,8.2,,,,,,"Article; Stewart; Canadian Journal of Chemistry; vol. 35; (1957); p. 766,769, 771, 772;",https://www.reaxys.com/reaxys/secured/hopinto.do?context=C&query=CNR.CNR%3D1634319&database=RX&origin=ReaxysOutput&ln=
,CON,1098249.0,https://www.reaxys.com/reaxys/secured/hopinto.do?context=S&query=IDE.XRN%3D1098249&database=RX&origin=ReaxysOutput&ln=,(182 of 4000),67-62-9,O-Methylhydroxylamin; methoxamine,NH2OCH3,CH5NO,47.0568,acyclic,,GMPKIPWJBDOURN-UHFFFAOYSA-N,,,,Identification(1199); Physical Data(86); Spectra(27); Bioactivity(136),1512.0,2096.0,-86.4,,,,,,"Article; Bissot et al.; Journal of the American Chemical Society; vol. 79; (1957); p. 796,799;",https://www.reaxys.com/reaxys/secured/hopinto.do?context=C&query=CNR.CNR%3D1275064&database=RX&origin=ReaxysOutput&ln=
,CNO,1730792.0,https://www.reaxys.com/reaxys/secured/hopinto.do?context=S&query=IDE.XRN%3D1730792&database=RX&origin=ReaxysOutput&ln=,(183 of 4000),593-77-1,N-Methylhydroxylamine; Methylhydroxylamine,CH3NHOH,CH5NO,47.0568,acyclic,,CPQCSJYYDADLCZ-UHFFFAOYSA-N,,,,Identification(239); Physical Data(38); Spectra(12); Bioactivity(48),832.0,671.0,38,,,,,,"Article; Davies; Spiers; Journal of the Chemical Society; (1959); p. 3971,3977;",https://www.reaxys.com/reaxys/secured/hopinto.do?context=C&query=CNR.CNR%3D1275069&database=RX&origin=ReaxysOutput&ln=
,C[13CH2]O,1839465.0,https://www.reaxys.com/reaxys/secured/hopinto.do?context=S&query=IDE.XRN%3D1839465&database=RX&origin=ReaxysOutput&ln=,(184 of 4000),14742-23-5,ethanol-1-13C; 1-13C ethanol; <1-13C>ethanol; Ethyl-1-(13)C alcohol; 13C-ethanol,CH3(13)CH2OH,C2H6O,47.058,acyclic; Isotope or isotope containing compound,,LFQSCWFLJHTTHZ-VQEHIDDOSA-N,,,,Identification(16); Physical Data(6); Spectra(23),29.0,42.0,-103.16,,Page/Page column 13,,,,Patent; MASS GENERAL BRIGHAM INC; US9289518; (2016); B2;,https://www.reaxys.com/reaxys/secured/hopinto.do?context=C&query=CNR.CNR%3D68688358&database=RX&origin=ReaxysOutput&ln=
,[2H]N([2H])CC,1732039.0,https://www.reaxys.com/reaxys/secured/hopinto.do?context=S&query=IDE.XRN%3D1732039&database=RX&origin=ReaxysOutput&ln=,(185 of 4000),5852-45-9,"ethylamine-N-d2; N,N-Dideuterio-aethylamin; Ethylamin-d2",C2H5(2)H2N,C2H7N,47.0684,acyclic,,QUSNBJAOOMFDIB-ZSJDYOACSA-N,,,,Identification(10); Physical Data(16); Spectra(28),9.0,28.0,-78.5,,,,,,Article; Roberts; Emeleus; Briscoe; Journal of the Chemical Society; (1939); p. 49;,https://www.reaxys.com/reaxys/secured/hopinto.do?context=C&query=CNR.CNR%3D1230952&database=RX&origin=ReaxysOutput&ln=
,[H+].NN.[H][B-]([H])([H])[H],17063346.0,https://www.reaxys.com/reaxys/secured/hopinto.do?context=S&query=IDE.XRN%3D17063346&database=RX&origin=ReaxysOutput&ln=,(186 of 4000),84819-61-4,hydrazinium tetrahydroborate,{N2H5}(1+)*{BH4}(1-)={N2H5}{BH4},BH4*H*H4N2,47.8959,Coordination compound,,NTNDBKUIQPAYGT-UHFFFAOYSA-O,,,,Identification(5); Physical Data(2),1.0,3.0,-44 - -38,,,,,,"Article; Gmelin Handbuch der Anorganischen Chemie; vol. B: B-Verb.8; 1.5, page 27 - 33;; ; Report; Adams, R. M.; Siedle, A. R.; in: Adams, R. M., Boron, Metallo-Boron Compounds and Boranes, Interscience Publishers, New York-London-Sydney 1964, pp. 457/62;; ; Report; Schechter, W. H.; Jackson, C. B.; Adams, R. M.; Boron Hydrides and Related Compounds, Callery Chem. Co., Callery, Pa., 1954; (from Gmelin)",https://www.reaxys.com/reaxys/secured/hopinto.do?context=C&query=CNR.CNR%3D7776617&database=RX&origin=ReaxysOutput&ln=
,FC=O,1732385.0,https://www.reaxys.com/reaxys/secured/hopinto.do?context=S&query=IDE.XRN%3D1732385&database=RX&origin=ReaxysOutput&ln=,(188 of 4000),1493-02-3,formyl fluoride,HCOF,CHFO,48.0167,acyclic,,NHGVZTMBVDFPHJ-UHFFFAOYSA-N,,,,Identification(140); Physical Data(53); Spectra(38),104.0,283.0,-142.17,,,,,,"Report; Ruedorff in W.Klemm; Anorganische Chemie, Tl.1 (=Naturf.Med.Dtschl. 1939-46, Bd.23) &lt;Wiesbaden 1949&gt; S.240;",https://www.reaxys.com/reaxys/secured/hopinto.do?context=C&query=CNR.CNR%3D1174856&database=RX&origin=ReaxysOutput&ln=
,[2H]C(=O)C([2H])([2H])[2H],1743039.0,https://www.reaxys.com/reaxys/secured/hopinto.do?context=S&query=IDE.XRN%3D1743039&database=RX&origin=ReaxysOutput&ln=,(189 of 4000),1632-89-9,acetaldehyde-d4; d4-acetaldehyde; [2H4]-acetaldehyde,C2(2)H4O,C2H4O,48.0214,acyclic,,IKHGUXGNUITLKF-MZCSYVLQSA-N,,,,Identification(31); Physical Data(34); Spectra(31),92.0,152.0,-121.7,,,,,,Article; Zanetti; Sickman; Journal of the American Chemical Society; vol. 57; (1935); p. 2735; Journal of the American Chemical Society; vol. 58; (1936); p. 2035;,https://www.reaxys.com/reaxys/secured/hopinto.do?context=C&query=CNR.CNR%3D1372800&database=RX&origin=ReaxysOutput&ln=
,COO,1696880.0,https://www.reaxys.com/reaxys/secured/hopinto.do?context=S&query=IDE.XRN%3D1696880&database=RX&origin=ReaxysOutput&ln=,(190 of 4000),3031-73-0,methyl hydroperoxide,CH3OOH,CH4O2,48.0416,acyclic,,MEUKEBNAABNAEX-UHFFFAOYSA-N,,,,Identification(500); Physical Data(35); Spectra(50),123.0,641.0,-78 - -72,,,,,,"Article; Egerton et al.; Discussions of the Faraday Society; vol. 10; (1951); p. 278,281;",https://www.reaxys.com/reaxys/secured/hopinto.do?context=C&query=CNR.CNR%3D1178028&database=RX&origin=ReaxysOutput&ln=
,[13CH3][13CH2]O,2069377.0,https://www.reaxys.com/reaxys/secured/hopinto.do?context=S&query=IDE.XRN%3D2069377&database=RX&origin=ReaxysOutput&ln=,(191 of 4000),70753-79-6,"ethanol; 13C2-ethanol; Ethanol-13C2; [13C]ethanol; [1,2-13C]ethanol",(13)C2H6O,C2H6O,48.047,acyclic,,LFQSCWFLJHTTHZ-ZDOIIHCHSA-N,,,,Identification(5); Physical Data(2); Spectra(8),7.0,10.0,71 - 71.5,,,,,,"Article; Kerr; Ott; Journal of labelled compounds and radiopharmaceuticals; vol. 15; (1978); p. 503,506;",https://www.reaxys.com/reaxys/secured/hopinto.do?context=C&query=CNR.CNR%3D4108757&database=RX&origin=ReaxysOutput&ln=
,C[15NH][15NH2],6184916.0,https://www.reaxys.com/reaxys/secured/hopinto.do?context=S&query=IDE.XRN%3D6184916&database=RX&origin=ReaxysOutput&ln=,(192 of 4000),,monomethyl(15N)nitrosohydrazine,CH6(15)N2,CH6N2,48.0586,acyclic,,HDZGCSFEDULWCS-SUEIGJEOSA-N,,,,Identification(6); Physical Data(1); Spectra(6),,1.0,45,,,,,,Article; Lown; Chauhan; Koganty; Sapse; Journal of the American Chemical Society; vol. 106; 21; (1984); p. 6401 - 6408;,https://www.reaxys.com/reaxys/secured/hopinto.do?context=C&query=CNR.CNR%3D5763476&database=RX&origin=ReaxysOutput&ln=
,CCF,1730748.0,https://www.reaxys.com/reaxys/secured/hopinto.do?context=S&query=IDE.XRN%3D1730748&database=RX&origin=ReaxysOutput&ln=,(193 of 4000),353-36-6,1-fluoroethane; Ethylfluorid; ethyl fluoride; Fluorethan; Aethylfluorid; fluoroethane; 1-Fluor-aethan; Monofluorethan; Fluor-aethan; HFC-161; R161; hydrofluoroethane; 1-Fluor-ethan; Fluoroethan,CH3CH2F,C2H5F,48.0601,acyclic,,UHCBBWUQDAVSMS-UHFFFAOYSA-N,,,,Identification(265); Physical Data(102); Spectra(85); Bioactivity(25),90.0,483.0,-143.2,,,,,,Article; Grosse; Wackher; Linn; Journal of Physical Chemistry; vol. 44; (1940); p. 293;; ; Article; Grosse; Linn; Journal of Organic Chemistry; vol. 3; (1938); p. 29;,https://www.reaxys.com/reaxys/secured/hopinto.do?context=C&query=CNR.CNR%3D1231103&database=RX&origin=ReaxysOutput&ln=
,CS,1696840.0,https://www.reaxys.com/reaxys/secured/hopinto.do?context=S&query=IDE.XRN%3D1696840&database=RX&origin=ReaxysOutput&ln=,(194 of 4000),74-93-1,methylthiol; Methanethiol,HSCH3,CH4S,48.1088,acyclic,,LSDPWZHWYPCBBB-UHFFFAOYSA-N,,,,Identification(3663); Physical Data(268); Spectra(92); Bioactivity(328),3312.0,6190.0,-123,,,,,,"Article; Russell; Osborne; Yost; Journal of the American Chemical Society; vol. 64; (1942); p. 165;; ; Report; Rossini; Selected values of chemical thermodynamic properties;; ; Article; Gillbro; Chemical Physics; vol. 4; (1974); p. 476,477;; ; Article; Peach; Ramaswamy; Journal of Inorganic and Nuclear Chemistry; vol. 34; (1972); p. 901,902;",https://www.reaxys.com/reaxys/secured/hopinto.do?context=C&query=CNR.CNR%3D1351598&database=RX&origin=ReaxysOutput&ln=
,FN=O,3925917.0,https://www.reaxys.com/reaxys/secured/hopinto.do?context=S&query=IDE.XRN%3D3925917&database=RX&origin=ReaxysOutput&ln=,(196 of 4000),7789-25-5,nitrosyl fluoride,FNO,FNO,49.0045,Coordination compound,,ZEIYBPGWHWECHV-UHFFFAOYSA-N,,,,Identification(30); Physical Data(43); Spectra(24),119.0,251.0,-132.4,,,,,,"Article; Ruff, O.; Menzel, W.; Neumann, W.; Zeitschrift fur anorganische Chemie; vol. 208; (1932); p. 293 - 303;; ; Article; Gmelin Handbuch der Anorganischen Chemie; vol. F: SVol.1; 74, page 251 - 253; (from Gmelin)",https://www.reaxys.com/reaxys/secured/hopinto.do?context=C&query=CNR.CNR%3D7257209&database=RX&origin=ReaxysOutput&ln=
,CO.[H]N([H])[H],3662862.0,https://www.reaxys.com/reaxys/secured/hopinto.do?context=S&query=IDE.XRN%3D3662862&database=RX&origin=ReaxysOutput&ln=,(197 of 4000),10193-64-3,ammonia methanol; methanolic ammonia; NH3-MeOH; ammonia methyl alcohol,H3N*CH4O,CH4O*H3N,49.0727,acyclic; Coordination compound,,CBHOOMGKXCMKIR-UHFFFAOYSA-N,,,,Identification(75); Physical Data(7); Spectra(2),16.0,90.0,-55,,,,,,"Article; Baume; Perrot; Comptes Rendus Hebdomadaires des Seances de l'Academie des Sciences; vol. 151; (1910); p. 528; Journal de Chimie Physique et de Physico-Chimie Biologique; vol. 12; (1914); p. 231;; ; Article; Baume, G.; Perrot, F. L.; Journal de Chimie Physique et de Physico-Chimie Biologique; vol. 12; (1914); p. 231;; ; Article; Gmelin Handbuch der Anorganischen Chemie; vol. N: MVol.2; 5.3, page 494 - 499; (from Gmelin)",https://www.reaxys.com/reaxys/secured/hopinto.do?context=C&query=CNR.CNR%3D1311446&database=RX&origin=ReaxysOutput&ln=