Structure: Image,SMILES,Substance Identification: Reaxys Registry Number,Links to Reaxys,Data Count,CAS Registry Number,Chemical Name,Linear Structure Formula,Molecular Formula,Molecular Weight,Type of Substance,Type and Modification,InChI Key,Composition: Comp. Name,Composition: Comp. Conc.,Composition: Comp. Attrib.,Field Availability,Number of Reactions,Number of References,Melting Point: Melting Point [C],Solvent (Melting Point),Location,Comment (Melting Point),Crystallizes With,Amount (Melting Point) [mol],References,Links to Reaxys.1
,[Li]C(C)C,3535063.0,https://www.reaxys.com/reaxys/secured/hopinto.do?context=S&query=IDE.XRN%3D3535063&database=RX&origin=ReaxysOutput&ln=,(198 of 4000),1888-75-1,isopropyllithium; i-propyllithium,Li(1+)*C3H7(1-)=LiC3H7,C3H7*Li,50.0296,acyclic,,HDSLTIHESBGENB-UHFFFAOYSA-N,,,,Identification(46); Physical Data(13); Spectra(5),795.0,526.0,53,,,,,,"Article; Quirk; Kester; Journal of Organometallic Chemistry; vol. 127; (1977); p. 111,117;",https://www.reaxys.com/reaxys/secured/hopinto.do?context=C&query=CNR.CNR%3D4473592&database=RX&origin=ReaxysOutput&ln=
,COF,2343477.0,https://www.reaxys.com/reaxys/secured/hopinto.do?context=S&query=IDE.XRN%3D2343477&database=RX&origin=ReaxysOutput&ln=,(199 of 4000),36336-08-0,methyl hypofluorite,CH3FO,CH3FO,50.0326,acyclic,,XMSZANIMCDLNKA-UHFFFAOYSA-N,,,,Identification(38); Physical Data(20); Spectra(13),55.0,43.0,-142,,,,,,"Article; Appelman, E. H.; Ruscic, B.; Berkowitz, J.; Kol, M.; Rosen, S.; et al.; Journal of Fluorine Chemistry; vol. 54; 1-3; (1991); p. 1;",https://www.reaxys.com/reaxys/secured/hopinto.do?context=C&query=CNR.CNR%3D5601316&database=RX&origin=ReaxysOutput&ln=
,CO.[H]O[H],3662860.0,https://www.reaxys.com/reaxys/secured/hopinto.do?context=S&query=IDE.XRN%3D3662860&database=RX&origin=ReaxysOutput&ln=,(200 of 4000),151900-28-6,methanol hydrate; methanol-water; methanol; monohydrate; Methanol; Monohydrat; methanol & water; water methanol,CH3OH*H2O,CH4O*H2O,50.0574,acyclic,,GBMDVOWEEQVZKZ-UHFFFAOYSA-N,,,,Identification(3022); Physical Data(2); Bioactivity(151),58.0,3018.0,-104,,,,,,"Article; Ewert, M.; Bulletin des Societes Chimiques Belges; vol. 46; (1937); p. 90 - 103;; ; Article; Gmelin Handbuch der Anorganischen Chemie; vol. O: MVol.6; 11, page 1759 - 1762; (from Gmelin)",https://www.reaxys.com/reaxys/secured/hopinto.do?context=C&query=CNR.CNR%3D7215546&database=RX&origin=ReaxysOutput&ln=
,C#CC#C,1236317.0,https://www.reaxys.com/reaxys/secured/hopinto.do?context=S&query=IDE.XRN%3D1236317&database=RX&origin=ReaxysOutput&ln=,(201 of 4000),460-12-8,"Butadiyne; buta-1,3-diyne; diacetylene",H(CC)2H,C4H2,50.0599,acyclic,,LLCSWKVOHICRDD-UHFFFAOYSA-N,,,,Identification(1260); Physical Data(82); Spectra(71),689.0,1752.0,-36,,,,,,"Article; Mueller; Baenninger; Helvetica Chimica Acta; vol. 10; (1927); p. 766,768;; ; Article; Mkryan et al.; Izvestiya Akademii Nauk Armyanskoi SSR, Khimicheskie Nauki; vol. 18; (1965); p. 477; Chem.Abstr.; vol. 64; 11071c; (1966);",https://www.reaxys.com/reaxys/secured/hopinto.do?context=C&query=CNR.CNR%3D1315804&database=RX&origin=ReaxysOutput&ln=
,NN.[H]O[H],4933273.0,https://www.reaxys.com/reaxys/secured/hopinto.do?context=S&query=IDE.XRN%3D4933273&database=RX&origin=ReaxysOutput&ln=,(202 of 4000),7803-57-8,hydrazine hydrate; hydrazine monohydrate; hydrazinium hydroxide; hydrazine; hydrazin hydrate; hydrazine monohydride; monohydrate hydrazine; hydrazin monohydrate; hydrazinium hydrate; hydrazide hydrate; hydrous hydrazine; hydrazine hydrate monohydrate; hydrazine monohyrate; hyrazine monohydrate; hydarzine hydrate; hydrazone hydrate; hydrazine hydrate; hydrazine monhydrate; NH2NH2*H2O; N2H4.H2O,(H2N)2*H2O,H2O*H4N2,50.0604,,,IKDUDTNKRLTJSI-UHFFFAOYSA-N,,,,Identification(10631); Physical Data(17); Spectra(17); Bioactivity(659),3479.0,13086.0,148 - 150,,,,,,"Article; Guo, Pengbin; Yan, Shuang; Hu, Zeliang; Zhuang, Weihui; Xiong, Yan; Zhang, Lanya; Wang, Ziwen; Wang, Qingmin; Journal of Heterocyclic Chemistry; vol. 54; 1; (2017); p. 121 - 124;",https://www.reaxys.com/reaxys/secured/hopinto.do?context=C&query=CNR.CNR%3D70515513&database=RX&origin=ReaxysOutput&ln=
,CCl,1696839.0,https://www.reaxys.com/reaxys/secured/hopinto.do?context=S&query=IDE.XRN%3D1696839&database=RX&origin=ReaxysOutput&ln=,(203 of 4000),74-87-3,methyl chloride; methylene chloride,CH3Cl,CH3Cl,50.4878,acyclic; Isotope or isotope containing compound,,NEHMKBQYUWJMIP-UHFFFAOYSA-N,,,,Identification(3844); Physical Data(611); Spectra(197); Bioactivity(372),2432.0,6845.0,,,,,,,"Report; Dreisbach; Adv. Chemistry Series 22, Phys.Prop.Chem.Compounds II; (1959); p. 194;",https://www.reaxys.com/reaxys/secured/hopinto.do?context=C&query=CNR.CNR%3D3762157&database=RX&origin=ReaxysOutput&ln=
,OO.[H]N([H])[H],16482782.0,https://www.reaxys.com/reaxys/secured/hopinto.do?context=S&query=IDE.XRN%3D16482782&database=RX&origin=ReaxysOutput&ln=,(204 of 4000),136327-05-4,ammonia hydrogen peroxide; hydrogen peroxide-ammonia; peroxide-ammonia,NH3*H2O2,H2O2*H3N,51.0452,,,SWXQKHHHCFXQJF-UHFFFAOYSA-N,,,,Identification(31); Physical Data(10); Spectra(1),6.0,36.0,24.5,,,,,,"Article; Maass, O.; Hatcher, W. H.; Journal of the American Chemical Society; vol. 44; (1922); p. 2477;; ; Article; Gmelin Handbuch der Anorganischen Chemie; vol. NH4: MVol.1; 2.5.5, page 79 - 79; (from Gmelin)",https://www.reaxys.com/reaxys/secured/hopinto.do?context=C&query=CNR.CNR%3D7337026&database=RX&origin=ReaxysOutput&ln=
,C#CC#N,1731595.0,https://www.reaxys.com/reaxys/secured/hopinto.do?context=S&query=IDE.XRN%3D1731595&database=RX&origin=ReaxysOutput&ln=,(205 of 4000),1070-71-9,propiolonitrile; cyanoacetylene; monocyanoacetylene,HCCCN,C3HN,51.0476,acyclic,,LNDJVIYUJOJFSO-UHFFFAOYSA-N,,,,Identification(418); Physical Data(83); Spectra(75); Bioactivity(36),345.0,705.0,5,,,,,,"Article; Moureu; Bongrand; Comptes Rendus Hebdomadaires des Seances de l'Academie des Sciences; vol. 151; (1910); p. 946; Annales de Chimie (Cachan, France); vol. &lt;9&gt;14; (1920); p. 51;; ; Patent; BAYER AG; PFIZER INC; CH569744; (1975); A5; Chem.Abstr.; vol. 77; 48762; Chem.Abstr.; vol. 77; 48762;",https://www.reaxys.com/reaxys/secured/hopinto.do?context=C&query=CNR.CNR%3D1128018&database=RX&origin=ReaxysOutput&ln=
,[H].S.[H][N+]([H])([H])[H],16504264.0,https://www.reaxys.com/reaxys/secured/hopinto.do?context=S&query=IDE.XRN%3D16504264&database=RX&origin=ReaxysOutput&ln=,(206 of 4000),,ammonium sulfide,NH4(1+)*HS(1-) = NH4HS,H4N*HS,51.1124,,,HOKYQLIWKJSBIO-UHFFFAOYSA-O,,,,Identification(5); Physical Data(50); Spectra(3),52.0,132.0,118,,,,,,"Article; Scheflan, L.; McCrosky, C. R.; Journal of the American Chemical Society; vol. 54; (1932); p. 200;; ; Article; Gmelin Handbuch der Anorganischen Chemie; vol. NH4: MVol.2; 1.1, page 243 - 246; (from Gmelin)",https://www.reaxys.com/reaxys/secured/hopinto.do?context=C&query=CNR.CNR%3D7355367&database=RX&origin=ReaxysOutput&ln=
,NCl,12769251.0,https://www.reaxys.com/reaxys/secured/hopinto.do?context=S&query=IDE.XRN%3D12769251&database=RX&origin=ReaxysOutput&ln=,(207 of 4000),12190-75-9,chloroamine; monochloramine; chloramine; monochloroamine; MCA,ClH2N,ClH2N,51.4756,,,QDHHCQZDFGDHMP-UHFFFAOYSA-N,,,,Identification(2958); Physical Data(39); Spectra(22); Bioactivity(179),194.0,3132.0,-66,,,,,,"Article; Marckwald; Wille; Chemische Berichte; vol. 56; (1923); p. 1323 - 1323;; ; Article; Gmelin Handbuch der Anorganischen Chemie; vol. Cl: MVol.; 158, page 419 - 421; (from Gmelin)",https://www.reaxys.com/reaxys/secured/hopinto.do?context=C&query=CNR.CNR%3D7535815&database=RX&origin=ReaxysOutput&ln=
,N#CC#N,1732464.0,https://www.reaxys.com/reaxys/secured/hopinto.do?context=S&query=IDE.XRN%3D1732464&database=RX&origin=ReaxysOutput&ln=,(208 of 4000),460-19-5,ethanedinitrile; cyanogen; dicyan; glycolonitrile,CNCN,C2N2,52.0354,acyclic; Isotope or isotope containing compound,,JMANVNJQNLATNU-UHFFFAOYSA-N,,,,Identification(824); Physical Data(481); Spectra(103); Bioactivity(132),1392.0,2590.0,19.85,,,2.25019E+06 Torr,,,"Article; Yoo, Choong-Shik; Nicol, Malcolm; Journal of Physical Chemistry; vol. 90; 25; (1986); p. 6726 - 6731; (from Gmelin)",https://www.reaxys.com/reaxys/secured/hopinto.do?context=C&query=CNR.CNR%3D5824487&database=RX&origin=ReaxysOutput&ln=
,[Li+].[O-]N=O,13191641.0,https://www.reaxys.com/reaxys/secured/hopinto.do?context=S&query=IDE.XRN%3D13191641&database=RX&origin=ReaxysOutput&ln=,(209 of 4000),13568-33-7,lithium nitrite,Li(1+)*NO2(1-),LiNO2,52.9465,,,IDNHOWMYUQKKTI-UHFFFAOYSA-M,,,,Identification(60); Physical Data(50); Spectra(2),58.0,154.0,219,,,,,,"Article; Protsenko, P. I.; Shisholina, R. P.; Ukrainskij Khimicheskij Zhurnal; vol. 30; (1964); p. 912 - 915; C.A.; vol. 62; (1965); p. 2285;; ; Article; Gmelin Handbuch der Anorganischen Chemie; vol. Na: SVol.5; 20.1, page 2049 - 2084; (from Gmelin)",https://www.reaxys.com/reaxys/secured/hopinto.do?context=C&query=CNR.CNR%3D7546592&database=RX&origin=ReaxysOutput&ln=
,FNF,13319974.0,https://www.reaxys.com/reaxys/secured/hopinto.do?context=S&query=IDE.XRN%3D13319974&database=RX&origin=ReaxysOutput&ln=,(210 of 4000),10405-27-3,"difluoroamine; N,N-difluoroamine; fluorine imide; difluoramine",F2HN,F2HN,53.0114,Coordination compound,,ULFHSQLFQYTZLS-UHFFFAOYSA-N,,,,Identification(31); Physical Data(20); Spectra(6),49.0,126.0,-125,,,,,,"Article; Ruff, O.; Staub, L.; Zeitschrift fur anorganische Chemie; vol. 198; (1931); p. 32 - 38;; ; Article; Gmelin Handbuch der Anorganischen Chemie; vol. F: SVol.1; 73, page 249 - 251;; ; Report; Staub, L.; Diss. Breslau T. H. 1932; (from Gmelin)",https://www.reaxys.com/reaxys/secured/hopinto.do?context=C&query=CNR.CNR%3D7257229&database=RX&origin=ReaxysOutput&ln=
,C=CC#N,605310.0,https://www.reaxys.com/reaxys/secured/hopinto.do?context=S&query=IDE.XRN%3D605310&database=RX&origin=ReaxysOutput&ln=,(211 of 4000),107-13-1,acrylonitrile,(CH(CN)CH2),C3H3N,53.0635,acyclic,,NLHHRLWOUZZQLW-UHFFFAOYSA-N,,,,Identification(6856); Physical Data(458); Spectra(132); Bioactivity(1071),16883.0,18179.0,-82.15,,,,,,"Article; Ban; Chachaty; Canadian Journal of Chemistry; vol. 51; (1973); p. 3889,3890, 3892-3896;",https://www.reaxys.com/reaxys/secured/hopinto.do?context=C&query=CNR.CNR%3D4853802&database=RX&origin=ReaxysOutput&ln=
,FOF,13256876.0,https://www.reaxys.com/reaxys/secured/hopinto.do?context=S&query=IDE.XRN%3D13256876&database=RX&origin=ReaxysOutput&ln=,(215 of 4000),7783-41-7,difluoroether; oxygen difluoride; fluorine monoxide; difluorine monoxide; flurine monoxide; perfluoro ether; perfluoromonoether; fluoroether,OF2,F2O,53.9962,,,UJMWVICAENGCRF-UHFFFAOYSA-N,,,,Identification(157); Physical Data(66); Spectra(18); Bioactivity(25),120.0,467.0,-223.8,,,,,,"Article; Marx, Rupert; Seppelt, Konrad; Dalton Transactions; vol. 44; 45; (2015); p. 19659 - 19662;",https://www.reaxys.com/reaxys/secured/hopinto.do?context=C&query=CNR.CNR%3D67588778&database=RX&origin=ReaxysOutput&ln=
,O=C1C=C1,1847513.0,https://www.reaxys.com/reaxys/secured/hopinto.do?context=S&query=IDE.XRN%3D1847513&database=RX&origin=ReaxysOutput&ln=,(217 of 4000),2961-80-0,2-cyclopropene-1-one; Cyclopropenon; cyclopropenone,C3H2O,C3H2O,54.0483,isocyclic,,GGRQLKPIJPFWEZ-UHFFFAOYSA-N,,,,Identification(125); Physical Data(14); Spectra(24); Bioactivity(8),27.0,149.0,-29 - -28,,,,,,Article; Breslow; Oda; Journal of the American Chemical Society; vol. 94; (1972); p. 4787;; ; Article; Breslow et al.; Organic Syntheses; vol. 57; (1977); p. 41;,https://www.reaxys.com/reaxys/secured/hopinto.do?context=C&query=CNR.CNR%3D3622329&database=RX&origin=ReaxysOutput&ln=
,C=CC=C,605258.0,https://www.reaxys.com/reaxys/secured/hopinto.do?context=S&query=IDE.XRN%3D605258&database=RX&origin=ReaxysOutput&ln=,(218 of 4000),106-99-0,"buta-1,3-diene; 1,3-butadiene; butadiene-1,3; butadien",H2CCHCHCH2,C4H6,54.0916,acyclic,,KAKZBPTYRLMSJV-UHFFFAOYSA-N,,,,Identification(10710); Physical Data(530); Spectra(157); Bioactivity(942),9489.0,17037.0,-108.9,,,,,,Article; Oka; Sato; Bulletin of the Chemical Society of Japan; vol. 42; (1969); p. 582;,https://www.reaxys.com/reaxys/secured/hopinto.do?context=C&query=CNR.CNR%3D5238224&database=RX&origin=ReaxysOutput&ln=
,C=C1CC1,741861.0,https://www.reaxys.com/reaxys/secured/hopinto.do?context=S&query=IDE.XRN%3D741861&database=RX&origin=ReaxysOutput&ln=,(219 of 4000),6142-73-0,methylene cyclopropane,CH2C(CH2)2,C4H6,54.0916,isocyclic,,XSGHLZBESSREDT-UHFFFAOYSA-N,,,,Identification(213); Physical Data(32); Spectra(40),448.0,477.0,-13.7,,,,,,"Article; Gragson et al.; Journal of the American Chemical Society; vol. 75; (1953); p. 3344,3347;",https://www.reaxys.com/reaxys/secured/hopinto.do?context=C&query=CNR.CNR%3D1731214&database=RX&origin=ReaxysOutput&ln=
,CCC#C,1304439.0,https://www.reaxys.com/reaxys/secured/hopinto.do?context=S&query=IDE.XRN%3D1304439&database=RX&origin=ReaxysOutput&ln=,(220 of 4000),107-00-6,but-1-yne; 1-Butyne,HCCCH2CH3,C4H6,54.0916,acyclic,,KDKYADYSIPSCCQ-UHFFFAOYSA-N,,,,Identification(436); Physical Data(124); Spectra(63); Bioactivity(1),624.0,1132.0,,,,,,,Article; Kebarle; Journal of Chemical Physics; vol. 39; (1963); p. 2218;,https://www.reaxys.com/reaxys/secured/hopinto.do?context=C&query=CNR.CNR%3D3787464&database=RX&origin=ReaxysOutput&ln=
,CC#CC,1361340.0,https://www.reaxys.com/reaxys/secured/hopinto.do?context=S&query=IDE.XRN%3D1361340&database=RX&origin=ReaxysOutput&ln=,(221 of 4000),503-17-3,dimethylacetylene; but-2-yne; 2-butyne,H3CC2CH3,C4H6,54.0916,acyclic,,XNMQEEKYCVKGBD-UHFFFAOYSA-N,,,,Identification(631); Physical Data(152); Spectra(106); Bioactivity(120),2574.0,2381.0,-33.15,,,,,,"Article; Claus, P.; Marquardt, M.; Trung, Tran Kim; Scherzer, K.; Journal fur praktische Chemie (Leipzig 1954); vol. 332; 4; (1990); p. 533 - 539;",https://www.reaxys.com/reaxys/secured/hopinto.do?context=C&query=CNR.CNR%3D5529551&database=RX&origin=ReaxysOutput&ln=
,CC=C=C,1730808.0,https://www.reaxys.com/reaxys/secured/hopinto.do?context=S&query=IDE.XRN%3D1730808&database=RX&origin=ReaxysOutput&ln=,(222 of 4000),590-19-2,"2,3-dimethylbutene; 1,2-butadiene",H2CCCHCH3,C4H6,54.0916,acyclic,,QNRMTGGDHLBXQZ-UHFFFAOYSA-N,,,,Identification(339); Physical Data(48); Spectra(38),302.0,632.0,-136.19,,,,,,"Article; Rossini; Selected values of physical and thermodynamic properties of hydrocarbons and related compounds; (1953); p. 62;; ; Article; Streiff et al.; Journal of Research of the National Bureau of Standards (United States); vol. 39; (1947); p. 321,325;",https://www.reaxys.com/reaxys/secured/hopinto.do?context=C&query=CNR.CNR%3D1347902&database=RX&origin=ReaxysOutput&ln=
,CC1C=C1,1846853.0,https://www.reaxys.com/reaxys/secured/hopinto.do?context=S&query=IDE.XRN%3D1846853&database=RX&origin=ReaxysOutput&ln=,(223 of 4000),18631-90-8,3-methyl-cyclopropen; 3-methylcyclopropene,C4H6,C4H6,54.0916,isocyclic,,FAPGNCCCFGCZKP-UHFFFAOYSA-N,,,,Identification(31); Physical Data(6); Spectra(5),29.0,36.0,-4,,,,,,Article; Koester et al.; Angewandte Chemie; vol. 82; (1970); p. 839;,https://www.reaxys.com/reaxys/secured/hopinto.do?context=C&query=CNR.CNR%3D4336426&database=RX&origin=ReaxysOutput&ln=
,C1C2CC12,2035799.0,https://www.reaxys.com/reaxys/secured/hopinto.do?context=S&query=IDE.XRN%3D2035799&database=RX&origin=ReaxysOutput&ln=,(224 of 4000),157-33-5,bicyclo[1.1.0]butane; Bicyclo<1.1.0>butan; Bicyclobutan; bicyclo<1.1.0>butane; bicyclobutane,C4H6,C4H6,54.0916,isocyclic,,LASLVGACQUUOEB-UHFFFAOYSA-N,,,,Identification(79); Physical Data(29); Spectra(38); Bioactivity(8),60.0,144.0,84 - 86,,supporting information,,,,"Article; McKeever, Caitriona; Kaiser, Marcel; Rozas, Isabel; Journal of Medicinal Chemistry; vol. 56; 3; (2013); p. 700 - 711;",https://www.reaxys.com/reaxys/secured/hopinto.do?context=C&query=CNR.CNR%3D35466778&database=RX&origin=ReaxysOutput&ln=
,O.Cl,13243308.0,https://www.reaxys.com/reaxys/secured/hopinto.do?context=S&query=IDE.XRN%3D13243308&database=RX&origin=ReaxysOutput&ln=,(226 of 4000),,hydrochloride monohydrate; HCl monohydrate; hydrogen chloride*H2O; water (HCl); hydrochloric acid water; hydrogen chloride * water; monohydrochloride monohydrate salt; (water)*(hydrogen chloride); monohydrate HCl; HCl water,HCl*H2O=HClH2O,ClH*H2O,54.4762,Coordination compound,,DKAGJZJALZXOOV-UHFFFAOYSA-N,,,,Identification(41); Physical Data(14); Spectra(20),13.0,89.0,-15.35,,,,,,"Article; Rupert; Journal of the American Chemical Society; vol. 31; (1909); p. 851 - 851;; ; Article; Gmelin Handbuch der Anorganischen Chemie; vol. Cl: MVol.; 46, page 136 - 138; (from Gmelin)",https://www.reaxys.com/reaxys/secured/hopinto.do?context=C&query=CNR.CNR%3D7449971&database=RX&origin=ReaxysOutput&ln=
,CCC#N,773680.0,https://www.reaxys.com/reaxys/secured/hopinto.do?context=S&query=IDE.XRN%3D773680&database=RX&origin=ReaxysOutput&ln=,(227 of 4000),107-12-0,propiononitrile; Propionitrile,C2H5NC,C3H5N,55.0794,acyclic,,FVSKHRXBFJPNKK-UHFFFAOYSA-N,,,,Identification(1163); Physical Data(690); Spectra(160); Bioactivity(192),2657.0,3690.0,-104,,,,,,"Article; Van Dvyne; Reilley; Analytical Chemistry; vol. 44; (1972); p. 142,151;",https://www.reaxys.com/reaxys/secured/hopinto.do?context=C&query=CNR.CNR%3D3970020&database=RX&origin=ReaxysOutput&ln=
,C[Be]OC,3684705.0,https://www.reaxys.com/reaxys/secured/hopinto.do?context=S&query=IDE.XRN%3D3684705&database=RX&origin=ReaxysOutput&ln=,(228 of 4000),,methylberyllium(1+); methylate; Methylberyllium(1+); Methylat,CH3BeOCH3,C2H6BeO,55.0812,acyclic,,WQGCSAYIEDWLCI-UHFFFAOYSA-N,,,,Identification(11); Physical Data(1),1.0,3.0,23 - 25,,,,,,"Article; Coates et al.; Journal of the Chemical Society; (1952); p. 4512,4513;",https://www.reaxys.com/reaxys/secured/hopinto.do?context=C&query=CNR.CNR%3D1282287&database=RX&origin=ReaxysOutput&ln=
,[H]B([H])[H].[H]B(C)C,4921666.0,https://www.reaxys.com/reaxys/secured/hopinto.do?context=S&query=IDE.XRN%3D4921666&database=RX&origin=ReaxysOutput&ln=,(229 of 4000),,"1,1-Dimethyldiboran; dimethyl-borane; compound with borane; Dimethyl-boran; Verbindung mit Boran",C2H7B*BH3,BH3*C2H7B,55.7234,acyclic,,KVKIQTAATOYWPM-UHFFFAOYSA-N,,,,Identification(6); Physical Data(4); Spectra(3),4.0,6.0,-150.2,,,,,,Article; Schlesinger; Walker; Journal of the American Chemical Society; vol. 57; (1935); p. 624;,https://www.reaxys.com/reaxys/secured/hopinto.do?context=C&query=CNR.CNR%3D1251742&database=RX&origin=ReaxysOutput&ln=
,CB(C)C,1730778.0,https://www.reaxys.com/reaxys/secured/hopinto.do?context=S&query=IDE.XRN%3D1730778&database=RX&origin=ReaxysOutput&ln=,(233 of 4000),593-90-8,trimethylborane,B(CH3)3,C3H9B,55.9155,acyclic,,WXRGABKACDFXMG-UHFFFAOYSA-N,,,,Identification(459); Physical Data(115); Spectra(81),428.0,980.0,-161,,,,,,"Article; Dehmelt; Zeitschrift Fur Physik; vol. 133; (1952); p. 528,530 Anm.2;",https://www.reaxys.com/reaxys/secured/hopinto.do?context=C&query=CNR.CNR%3D1281829&database=RX&origin=ReaxysOutput&ln=
,[H].[Na].S,11323282.0,https://www.reaxys.com/reaxys/secured/hopinto.do?context=S&query=IDE.XRN%3D11323282&database=RX&origin=ReaxysOutput&ln=,(234 of 4000),,sodium hydrogen sulfide; sodium hydrosulfide; sodium hydrosulphide; sodium hydrogen sulphide; NaSH; sodium hydrosulfite,Na(1+)*HS(1-) = NaHS,HNaS,56.0637,,,GWRDRKBUGGNFAU-UHFFFAOYSA-N,,,,Identification(450); Physical Data(128); Spectra(14); Bioactivity(165),448.0,1050.0,43,,,,,,"Article; Gmelin Handbuch der Anorganischen Chemie; vol. Na: SVol.1; 46, page 203 - 205;; ; Patent; BAYER AG; DE814140; (1951); C; C.; (1952); p. 585; (from Gmelin)",https://www.reaxys.com/reaxys/secured/hopinto.do?context=C&query=CNR.CNR%3D7469997&database=RX&origin=ReaxysOutput&ln=