Structure: Image,SMILES,Substance Identification: Reaxys Registry Number,Links to Reaxys,Data Count,CAS Registry Number,Chemical Name,Linear Structure Formula,Molecular Formula,Molecular Weight,Type of Substance,Type and Modification,InChI Key,Composition: Comp. Name,Composition: Comp. Conc.,Composition: Comp. Attrib.,Field Availability,Number of Reactions,Number of References,Melting Point: Melting Point [C],Solvent (Melting Point),Location,Comment (Melting Point),Crystallizes With,Amount (Melting Point) [mol],References,Links to Reaxys.1
,N.[Al],14444722.0,https://www.reaxys.com/reaxys/secured/hopinto.do?context=S&query=IDE.XRN%3D14444722&database=RX&origin=ReaxysOutput&ln=,(123 of 4000),,aluminium nitride; aluminum nitride,AlN,AlN,40.9882,Alloy; Glass or Ceramic material,,QVRYCILXIXLVCU-UHFFFAOYSA-N,,,,Identification(19); Physical Data(622); Spectra(100); Bioactivity(84),1596.0,1656.0,654,,,,,,Article; Rounaghi; Eshghi; Kiani Rashid; Vahdati Khaki; Samadi Khoshkhoo; Scudino; Eckert; Journal of Solid State Chemistry; vol. 198; (2013); p. 542 - 547;,https://www.reaxys.com/reaxys/secured/hopinto.do?context=C&query=CNR.CNR%3D35449979&database=RX&origin=ReaxysOutput&ln=
,F[2H].[2H]O[2H],16963684.0,https://www.reaxys.com/reaxys/secured/hopinto.do?context=S&query=IDE.XRN%3D16963684&database=RX&origin=ReaxysOutput&ln=,(124 of 4000),,,D2O*DF,FH*H2O,40.9978,Isotope or isotope containing compound,,SGWCNDDOFLBOQV-ZRLBSURWSA-N,,,,Identification(5); Physical Data(8); Spectra(1),,2.0,-41,,,,,,"Article; Poll, Wolfgang; Lohmeyer, Michaela; Mootz, Dietrich; Zeitschrift fur Naturforschung, B: Chemical Sciences; vol. 44; 11; (1989); p. 1359 - 1364; (from Gmelin)",https://www.reaxys.com/reaxys/secured/hopinto.do?context=C&query=CNR.CNR%3D5771435&database=RX&origin=ReaxysOutput&ln=
,CC#N,741857.0,https://www.reaxys.com/reaxys/secured/hopinto.do?context=S&query=IDE.XRN%3D741857&database=RX&origin=ReaxysOutput&ln=,(125 of 4000),75-05-8,acetonitrile; MeCN,H3CCN,C2H3N,41.0525,acyclic,,WEVYAHXRMPXWCK-UHFFFAOYSA-N,,,,Identification(10913); Physical Data(3757); Spectra(533); Bioactivity(1828),42580.0,34326.0,-43.16,,,,,,"Article; Mcconville, Christina A.; Tao, Yunwen; Evans, Hayden A.; Trump, Benjamin A.; Lefton, Jonathan B.; Xu, Wenqian; Yakovenko, Andrey A.; Kraka, Elfi; Brown, Craig M.; Runčevski, Tomče; Chemical Communications; vol. 56; 88; (2020); p. 13520 - 13523;",https://www.reaxys.com/reaxys/secured/hopinto.do?context=C&query=CNR.CNR%3D81522806&database=RX&origin=ReaxysOutput&ln=
,Cl[H].CC(C)=O,16698817.0,https://www.reaxys.com/reaxys/secured/hopinto.do?context=S&query=IDE.XRN%3D16698817&database=RX&origin=ReaxysOutput&ln=,(127 of 4000),,0.76hydrogen chloride*0.24acetone,0.76HCl*0.24CH3COCH3,0C3H6O*0ClH,41.6495,,,HPOKESDSMZRZLC-UHFFFAOYSA-N,,,,Identification(5); Physical Data(1),,2.0,-81,,,,,,"Article; McIntosh, D.; Bulletin of the Chemical Society of Japan; vol. 3; (1928); p. 82 - 86;; ; Article; Gmelin Handbuch der Anorganischen Chemie; vol. Cl: SVol.B1; 96, page 273 - 275; (from Gmelin)",https://www.reaxys.com/reaxys/secured/hopinto.do?context=C&query=CNR.CNR%3D7242728&database=RX&origin=ReaxysOutput&ln=
,C=C=O,1098282.0,https://www.reaxys.com/reaxys/secured/hopinto.do?context=S&query=IDE.XRN%3D1098282&database=RX&origin=ReaxysOutput&ln=,(131 of 4000),463-51-4,Ketene,H2CCO,C2H2O,42.0373,acyclic,,CCGKOQOJPYTBIH-UHFFFAOYSA-N,,,,Identification(156); Physical Data(107); Spectra(100); Bioactivity(80),2275.0,1583.0,-151,,,,,,"Article; Staudinger; Klever; Chemische Berichte; vol. 41; (1908); p. 595;; ; Article; van Tilborg et al.; Synthetic Communications; vol. 3; (1973); p. 189,193-195;",https://www.reaxys.com/reaxys/secured/hopinto.do?context=C&query=CNR.CNR%3D1112577&database=RX&origin=ReaxysOutput&ln=
,C=[N]#N,102415.0,https://www.reaxys.com/reaxys/secured/hopinto.do?context=S&query=IDE.XRN%3D102415&database=RX&origin=ReaxysOutput&ln=,(132 of 4000),186581-53-3; 908094-01-9,diazomethane; doazomethane,N2CH2,CH2N2,42.0403,acyclic,,YXHKONLOYHBTNS-UHFFFAOYSA-N,,,,Identification(1977); Physical Data(58); Spectra(40); Bioactivity(1650),59664.0,32963.0,-145,,,,,,Article; Staudinger; Kupfer; Chemische Berichte; vol. 45; (1912); p. 508;,https://www.reaxys.com/reaxys/secured/hopinto.do?context=C&query=CNR.CNR%3D1308757&database=RX&origin=ReaxysOutput&ln=
,NC#N,1732569.0,https://www.reaxys.com/reaxys/secured/hopinto.do?context=S&query=IDE.XRN%3D1732569&database=RX&origin=ReaxysOutput&ln=,(133 of 4000),420-04-2,CYANAMID,C(NH2)N,CH2N2,42.0403,acyclic,,XZMCDFZZKTWFGF-UHFFFAOYSA-N,,,,Identification(2566); Physical Data(259); Spectra(116); Bioactivity(333),6225.0,5681.0,44,,Paragraph [0050],,,,Patent; OPGEN INC; WO2016/33077; (2016); A1;,https://www.reaxys.com/reaxys/secured/hopinto.do?context=C&query=CNR.CNR%3D68495464&database=RX&origin=ReaxysOutput&ln=
,CC#[15N],2036405.0,https://www.reaxys.com/reaxys/secured/hopinto.do?context=S&query=IDE.XRN%3D2036405&database=RX&origin=ReaxysOutput&ln=,(134 of 4000),14149-39-4,((15)N)Acetonitril,(15)NCCH3,C2H3N,42.0458,acyclic,,WEVYAHXRMPXWCK-LBPDFUHNSA-N,,,,Identification(17); Physical Data(23); Spectra(26),28.0,53.0,-45.7,,,,,,Article; Alei; Jr. et al.; Journal of Physical Chemistry; vol. 75; (1971); p. 932;,https://www.reaxys.com/reaxys/secured/hopinto.do?context=C&query=CNR.CNR%3D3984918&database=RX&origin=ReaxysOutput&ln=
,C1CC1,605256.0,https://www.reaxys.com/reaxys/secured/hopinto.do?context=S&query=IDE.XRN%3D605256&database=RX&origin=ReaxysOutput&ln=,(135 of 4000),75-19-4,cyclopropane,(CH2)3,C3H6,42.0806,isocyclic,,LVZWSLJZHVFIQJ-UHFFFAOYSA-N,,,,Identification(2243); Physical Data(367); Spectra(126); Bioactivity(170),449.0,3258.0,75 - 77,,supporting information,,,,"Article; McKeever, Caitriona; Kaiser, Marcel; Rozas, Isabel; Journal of Medicinal Chemistry; vol. 56; 3; (2013); p. 700 - 711;",https://www.reaxys.com/reaxys/secured/hopinto.do?context=C&query=CNR.CNR%3D35466778&database=RX&origin=ReaxysOutput&ln=
,CC=C,1696878.0,https://www.reaxys.com/reaxys/secured/hopinto.do?context=S&query=IDE.XRN%3D1696878&database=RX&origin=ReaxysOutput&ln=,(136 of 4000),187737-37-7,propene; 1-propene; propylene,C2H3CH3,C3H6,42.0806,acyclic,,QQONPFPTGQHPMA-UHFFFAOYSA-N,,,,Identification(24368); Physical Data(1211); Spectra(184); Bioactivity(1710),8207.0,34021.0,128,,,,,,"Article; Joshi, T.; Dass, A.; Pandey, S.; Shukla, S.; Phytochemistry; vol. 24; 12; (1985); p. 3073 - 3074;",https://www.reaxys.com/reaxys/secured/hopinto.do?context=C&query=CNR.CNR%3D5830660&database=RX&origin=ReaxysOutput&ln=
,O=N#C,1071209.0,https://www.reaxys.com/reaxys/secured/hopinto.do?context=S&query=IDE.XRN%3D1071209&database=RX&origin=ReaxysOutput&ln=,(138 of 4000),51060-05-0,fulminic acid,HNCO,CHNO,43.025,acyclic,,UXKUODQYLDZXDL-UHFFFAOYSA-N,,,,Identification(70); Physical Data(31); Spectra(29); Bioactivity(11),90.0,210.0,-10,,,,,,Article; Beck et al.; Chemische Berichte; vol. 104; (1971); p. 528;,https://www.reaxys.com/reaxys/secured/hopinto.do?context=C&query=CNR.CNR%3D5108598&database=RX&origin=ReaxysOutput&ln=
,N=C=O,1616281.0,https://www.reaxys.com/reaxys/secured/hopinto.do?context=S&query=IDE.XRN%3D1616281&database=RX&origin=ReaxysOutput&ln=,(139 of 4000),75-13-8,isocyanic acid; cyanic acid,NHCO,CHNO,43.025,acyclic,,OWIKHYCFFJSOEH-UHFFFAOYSA-N,,,,Identification(1253); Physical Data(188); Spectra(117); Bioactivity(92),336.0,1815.0,-86.15,,,,,,"Article; Sheludyakov, Yu. L.; Shubareva, F. Z.; Golodov, V. A.; Russian Journal of Applied Chemistry; vol. 67; 5.2; (1994); p. 780 - 781; Zhurnal Prikladnoi Khimii (Sankt-Peterburg, Russian Federation); vol. 67; 5; (1994); p. 873 - 874;",https://www.reaxys.com/reaxys/secured/hopinto.do?context=C&query=CNR.CNR%3D5971939&database=RX&origin=ReaxysOutput&ln=
,OC#N,1732479.0,https://www.reaxys.com/reaxys/secured/hopinto.do?context=S&query=IDE.XRN%3D1732479&database=RX&origin=ReaxysOutput&ln=,(140 of 4000),420-05-3,cyanic acid; anhydrous cyanic acid,CNOH,CHNO,43.025,acyclic,,XLJMAIOERFSOGZ-UHFFFAOYSA-N,,,,Identification(373); Physical Data(100); Spectra(21); Bioactivity(37),448.0,727.0,-80,,,,,,"Article; v.Dohlen; Carpenter; Acta Crystallographica; vol. 8; (1955); p. 646,647;",https://www.reaxys.com/reaxys/secured/hopinto.do?context=C&query=CNR.CNR%3D1493012&database=RX&origin=ReaxysOutput&ln=
,[H+].[N-]=[N+]=[N-],14840755.0,https://www.reaxys.com/reaxys/secured/hopinto.do?context=S&query=IDE.XRN%3D14840755&database=RX&origin=ReaxysOutput&ln=,(141 of 4000),916329-38-9,hydrogen azide; hydrazoic acid,H(1+)*N3(1-),H*N3,43.028,,,IVRMZWNICZWHMI-UHFFFAOYSA-O,,,,Identification(7); Physical Data(13); Spectra(7); Bioactivity(13),158.0,231.0,-80,,,,,,"Article; Curtius, Th.; Radenhausen, R.; Journal fur praktische Chemie (Leipzig 1954); vol. 43; (1981); p. 207;; ; Article; Gmelin Handbuch der Anorganischen Chemie; vol. N: MVol.2; 1.2, page 290 - 294; (from Gmelin)",https://www.reaxys.com/reaxys/secured/hopinto.do?context=C&query=CNR.CNR%3D7308565&database=RX&origin=ReaxysOutput&ln=
,[15NH2]C#N,1699268.0,https://www.reaxys.com/reaxys/secured/hopinto.do?context=S&query=IDE.XRN%3D1699268&database=RX&origin=ReaxysOutput&ln=,(142 of 4000),1449-74-7,(15NH2)-Cyanamid; Cyan-15N-amid; (15)N-labeled cyanamide; [N-15N]cyanamide; [15N]carbamonitrile; [15N]Cyanamid,H2(15)NCN,CH2N2,43.0336,acyclic; Isotope or isotope containing compound,,XZMCDFZZKTWFGF-VQEHIDDOSA-N,,,,Identification(5); Physical Data(1); Spectra(1),7.0,11.0,42 - 45,,,,,,Article; Braun; Metzger; Bulletin de la Societe Chimique de France; (1967); p. 503;,https://www.reaxys.com/reaxys/secured/hopinto.do?context=C&query=CNR.CNR%3D3558645&database=RX&origin=ReaxysOutput&ln=
,C1CN1,102380.0,https://www.reaxys.com/reaxys/secured/hopinto.do?context=S&query=IDE.XRN%3D102380&database=RX&origin=ReaxysOutput&ln=,(143 of 4000),151-56-4,AZIRIDINE; ethyleneimine,CH2CH2NH,C2H5N,43.0684,heterocyclic,,NOWKCMXCCJGMRR-UHFFFAOYSA-N,,,,Identification(1800); Physical Data(96); Spectra(52); Bioactivity(140),1941.0,2762.0,-78,,,,,,"Article; Timmermans; Bulletin des Societes Chimiques Belges; vol. 61; (1952); p. 393,396;",https://www.reaxys.com/reaxys/secured/hopinto.do?context=C&query=CNR.CNR%3D1392948&database=RX&origin=ReaxysOutput&ln=
,CN=C,1731564.0,https://www.reaxys.com/reaxys/secured/hopinto.do?context=S&query=IDE.XRN%3D1731564&database=RX&origin=ReaxysOutput&ln=,(144 of 4000),1761-67-7,N-methylmethanimine; methyl-methylen-amine; Formaldehyd-methylimin,C2H5N,C2H5N,43.0684,acyclic,,NYVSDPNXBIEFPW-UHFFFAOYSA-N,,,,Identification(42); Physical Data(18); Spectra(34); Bioactivity(5),46.0,93.0,-119,,,,,,Patent; DUPONT DE NEMOURS INC; US2729679; (1951); A;,https://www.reaxys.com/reaxys/secured/hopinto.do?context=C&query=CNR.CNR%3D1255094&database=RX&origin=ReaxysOutput&ln=
,OB=O,3660333.0,https://www.reaxys.com/reaxys/secured/hopinto.do?context=S&query=IDE.XRN%3D3660333&database=RX&origin=ReaxysOutput&ln=,(145 of 4000),13460-50-9,metaboric acid; monomeric metaboric acid; methaboric acid; boranic acid,OBOH,BHO2,43.8177,,,VGTPKLINSHNZRD-UHFFFAOYSA-N,,,,Identification(199); Physical Data(11); Spectra(4),457.0,589.0,173,,,,,,"Article; Sowa, F. J.; Kroeger, J. W.; Nieuwland, J. A.; Journal of the American Chemical Society; vol. 57; (1935); p. 454 - 456;; ; Article; Sowa, F. J.; Kroeger, J. W.; Nieuwland, J. A.; Journal of the American Chemical Society; vol. 59; (1937); p. 965 - 969;; ; Article; Gmelin Handbuch der Anorganischen Chemie; vol. B: SVol.1; 4.4.5, page 187 - 196; (from Gmelin)",https://www.reaxys.com/reaxys/secured/hopinto.do?context=C&query=CNR.CNR%3D7263586&database=RX&origin=ReaxysOutput&ln=
,C#P,1900197.0,https://www.reaxys.com/reaxys/secured/hopinto.do?context=S&query=IDE.XRN%3D1900197&database=RX&origin=ReaxysOutput&ln=,(151 of 4000),6829-52-3,methylidynephosphine; phosphaethyne,HCP,CHP,43.9927,acyclic,,DPYPSJGRRFKXBE-UHFFFAOYSA-N,,,,Identification(28); Physical Data(18); Spectra(44),23.0,76.0,124,,,,,,Patent; DUPONT DE NEMOURS INC; US3051756; (1960); A; Chem.Abstr.; vol. 58; 9140b; (1963); Chem.Abstr.; vol. 58; 9140b; (1963);,https://www.reaxys.com/reaxys/secured/hopinto.do?context=C&query=CNR.CNR%3D4392248&database=RX&origin=ReaxysOutput&ln=
,O=C=O,1900390.0,https://www.reaxys.com/reaxys/secured/hopinto.do?context=S&query=IDE.XRN%3D1900390&database=RX&origin=ReaxysOutput&ln=,(152 of 4000),124-38-9,carbon dioxide; Dry ice,OCO,CO2,44.0098,acyclic; Isotope or isotope containing compound,,CURLTUGMZLYLDI-UHFFFAOYSA-N,,,,Identification(117951); Physical Data(23804); Spectra(844); Bioactivity(8006),47269.0,158531.0,,,,melting diagram; melting equation,,,"Article; Giordano, Valentina M.; Datchi, Frederic; Dewaele, Agnes; Journal of Chemical Physics; vol. 125; 5; (2006); (from Gmelin)",https://www.reaxys.com/reaxys/secured/hopinto.do?context=C&query=CNR.CNR%3D8604058&database=RX&origin=ReaxysOutput&ln=
,O=N#N,8137358.0,https://www.reaxys.com/reaxys/secured/hopinto.do?context=S&query=IDE.XRN%3D8137358&database=RX&origin=ReaxysOutput&ln=,(153 of 4000),10024-97-2,dinitrogen monoxide; Nitrous oxide; nitrogen(I) oxide,ONN,N2O,44.0128,Coordination compound; Isotope or isotope containing compound,,GQPLMRYTRLFLPF-UHFFFAOYSA-N,,,,Identification(12347); Physical Data(1534); Spectra(293); Bioactivity(782),1935.0,15513.0,-90.89,,,,,,"Article; Blue, R. W.; Giauque, W. F.; Journal of the American Chemical Society; vol. 57; (1935); p. 993;; ; Article; Blue, R. W.; Giauque, W. F.; Journal of the American Chemical Society; vol. 57; (1935); p. 994;; ; Article; Clusius, K.; Hiller, K.; Vaughen, J. V.; Zeitschrift fur Physikalische Chemie, Abteilung B: Chemie der Elementarprozesse, Aufbau der Materie; vol. 8; (1930); p. 432 - 436;; ; Article; Gmelin Handbuch der Anorganischen Chemie; vol. N: MVol.3; 1.1.8.3, page 523 - 540; (from Gmelin)",https://www.reaxys.com/reaxys/secured/hopinto.do?context=C&query=CNR.CNR%3D7401514&database=RX&origin=ReaxysOutput&ln=
,[2H]N([2H])C#N,1740236.0,https://www.reaxys.com/reaxys/secured/hopinto.do?context=S&query=IDE.XRN%3D1740236&database=RX&origin=ReaxysOutput&ln=,(155 of 4000),4850-53-7,dideuteriocyanamide; cyanamide-d2; Dideutero-cyanamid; Dideuteriocyanamid,(2)H2NCN,CH2N2,44.0244,acyclic; Isotope or isotope containing compound,,XZMCDFZZKTWFGF-ZSJDYOACSA-N,,,,Identification(6); Physical Data(19); Spectra(11),6.0,41.0,43 - 44,,,,,,"Article; Chandra, Harish; Mishra, Shuddhodan P.; Symons, Martyn C. R.; Chemical Physics Letters; vol. 134; (1987); p. 307 - 310; (from Gmelin)",https://www.reaxys.com/reaxys/secured/hopinto.do?context=C&query=CNR.CNR%3D7707585&database=RX&origin=ReaxysOutput&ln=
,N[14C]#N,1699267.0,https://www.reaxys.com/reaxys/secured/hopinto.do?context=S&query=IDE.XRN%3D1699267&database=RX&origin=ReaxysOutput&ln=,(156 of 4000),21420-36-0,[14C]cyanamide; Cyanamid-14C; (14)C-labeled cyanamide; [14C]carbamonitrile; [14C]Cyanamid,H2N(14)CN,CH2N2,44.0293,acyclic; Isotope or isotope containing compound,,XZMCDFZZKTWFGF-NJFSPNSNSA-N,,,,Identification(6); Physical Data(2),12.0,17.0,40,,,,,,"Article; Murray; Ronzio; Journal of the American Chemical Society; vol. 71; (1949); p. 2245;; ; Patent; U.S.Atomic Energy Comiss.; US2571926; (1948); A;; ; Article; Zbarsky, S. H.; Fischer, I.; Canadian Journal of Research, Section B: Chemical Sciences; vol. 27; (1949); p. 81 - 86;; ; Article; Gmelin Handbuch der Anorganischen Chemie; vol. C: MVol.D1; 23.2.8, page 263 - 263; (from Gmelin)",https://www.reaxys.com/reaxys/secured/hopinto.do?context=C&query=CNR.CNR%3D1475295&database=RX&origin=ReaxysOutput&ln=
,C1CO1,102378.0,https://www.reaxys.com/reaxys/secured/hopinto.do?context=S&query=IDE.XRN%3D102378&database=RX&origin=ReaxysOutput&ln=,(157 of 4000),75-21-8,oxirane; ethylene oxide; oxyethylene,(CH2)2O,C2H4O,44.0532,heterocyclic,,IAYPIBMASNFSPL-UHFFFAOYSA-N,,,,Identification(10030); Physical Data(309); Spectra(83); Bioactivity(781),6597.0,14761.0,-112.15,,,,,,"Article; Luger, Peter; Zaki, Chakib; Buschmann, Juergen; Rudert, Rainer; Angewandte Chemie; vol. 98; 3; (1986); p. 254 - 255;",https://www.reaxys.com/reaxys/secured/hopinto.do?context=C&query=CNR.CNR%3D5623878&database=RX&origin=ReaxysOutput&ln=
,CC=O,505984.0,https://www.reaxys.com/reaxys/secured/hopinto.do?context=S&query=IDE.XRN%3D505984&database=RX&origin=ReaxysOutput&ln=,(158 of 4000),75-07-0,acetaldehyde,HCOCH3,C2H4O,44.0532,acyclic,,IKHGUXGNUITLKF-UHFFFAOYSA-N,,,,Identification(22423); Physical Data(579); Spectra(286); Bioactivity(2384),23338.0,42259.0,-123.5,,,,,,"Article; Zanetti; Sickman; Journal of the American Chemical Society; vol. 58; (1936); p. 2034;; ; Article; Biltz; Fischer; Wuennenberg; Zeitschrift fur Physikalische Chemie, Abteilung A: Chemische Thermodynamik, Kinetik, Elektrochemie, Eigenschaftslehre; vol. 151; (1930); p. 18;",https://www.reaxys.com/reaxys/secured/hopinto.do?context=C&query=CNR.CNR%3D533660&database=RX&origin=ReaxysOutput&ln=
,OC=C,1900281.0,https://www.reaxys.com/reaxys/secured/hopinto.do?context=S&query=IDE.XRN%3D1900281&database=RX&origin=ReaxysOutput&ln=,(159 of 4000),557-75-5,ethenol,CH2CH(OH),C2H4O,44.0532,acyclic,,IMROMDMJAWUWLK-UHFFFAOYSA-N,,,,Identification(3967); Physical Data(22); Spectra(23); Bioactivity(203),95.0,4054.0,185.5,,,,,,"Article; Chandrakala; Ramaraj; Shivakumaraiah; Lee, Joong Hee; Siddaramaiah; Journal of Alloys and Compounds; vol. 580; (2013); p. 392 - 400;",https://www.reaxys.com/reaxys/secured/hopinto.do?context=C&query=CNR.CNR%3D61345444&database=RX&origin=ReaxysOutput&ln=
,CN=N,2035925.0,https://www.reaxys.com/reaxys/secured/hopinto.do?context=S&query=IDE.XRN%3D2035925&database=RX&origin=ReaxysOutput&ln=,(160 of 4000),22038-72-8; 26981-93-1; 51943-20-5,methyldiazene; methylhydrazine; trans-Methyl-diazen; Methyldiazen,CH3NNH,CH4N2,44.0562,acyclic,,JYXPWUYLZPYOAH-UHFFFAOYSA-N,,,,Identification(49); Physical Data(10); Spectra(12),161.0,156.0,-122,,,,,,"Article; Ackermann et al.; Inorganic Chemistry; vol. 11; (1972); p. 3076,3077;",https://www.reaxys.com/reaxys/secured/hopinto.do?context=C&query=CNR.CNR%3D4276866&database=RX&origin=ReaxysOutput&ln=
,[C-]#N.[H][N+]([H])([H])[H],3681293.0,https://www.reaxys.com/reaxys/secured/hopinto.do?context=S&query=IDE.XRN%3D3681293&database=RX&origin=ReaxysOutput&ln=,(161 of 4000),71680-52-9; 130166-69-7,ammonium cyanide,NH4(1+)*CN(1-)=NH4CN,CN*H4N,44.0562,acyclic,,ICAIHGOJRDCMHE-UHFFFAOYSA-O,,,,Identification(35); Physical Data(56); Spectra(1),195.0,304.0,36,,,,,,"Article; Gay-Lussac; Annales de Chimie (Cachan, France); vol. &lt;I&gt; 95; p. 216;",https://www.reaxys.com/reaxys/secured/hopinto.do?context=C&query=CNR.CNR%3D1172601&database=RX&origin=ReaxysOutput&ln=
,CCC,1730718.0,https://www.reaxys.com/reaxys/secured/hopinto.do?context=S&query=IDE.XRN%3D1730718&database=RX&origin=ReaxysOutput&ln=,(162 of 4000),74-98-6,propane,(CH3)2CH2,C3H8,44.0965,acyclic,,ATUOYWHBWRKTHZ-UHFFFAOYSA-N,,,,Identification(22823); Physical Data(1931); Spectra(129); Bioactivity(1399),2568.0,27749.0,58 - 60,,supporting information,,,,"Article; McKeever, Caitriona; Kaiser, Marcel; Rozas, Isabel; Journal of Medicinal Chemistry; vol. 56; 3; (2013); p. 700 - 711;",https://www.reaxys.com/reaxys/secured/hopinto.do?context=C&query=CNR.CNR%3D35466778&database=RX&origin=ReaxysOutput&ln=
,[Li+].[H][N-][H].[H][B-]([H])([H])[H],18035561.0,https://www.reaxys.com/reaxys/secured/hopinto.do?context=S&query=IDE.XRN%3D18035561&database=RX&origin=ReaxysOutput&ln=,(163 of 4000),,,2Li(1+)*BH4(1-)*NH2(1-)=Li2(BH4)(NH2),BH4*H2N*2Li,44.7473,Coordination compound,,QVRCQULIUCSJQX-UHFFFAOYSA-N,,,,Identification(5); Physical Data(16); Spectra(19),2.0,3.0,91.84,,,,,,"Article; Matsuo, Motoaki; Remhof, Arndt; Martelli, Pascal; Caputo, Riccarda; Ernst, Matthias; Miura, Yohei; Sato, Toyoto; Oguchi, Hiroyuki; Maekawa, Hideki; Takamura, Hitoshi; Borgschulte, Andreas; Zuettel, Andreas; Orimo, Shin-Ichi; Journal of the American Chemical Society; vol. 131; 45; (2009); p. 16389 - 16391; (from Gmelin)",https://www.reaxys.com/reaxys/secured/hopinto.do?context=C&query=CNR.CNR%3D8824194&database=RX&origin=ReaxysOutput&ln=