Structure: Image,SMILES,Substance Identification: Reaxys Registry Number,Links to Reaxys,Data Count,CAS Registry Number,Chemical Name,Linear Structure Formula,Molecular Formula,Molecular Weight,Type of Substance,Type and Modification,InChI Key,Composition: Comp. Name,Composition: Comp. Conc.,Composition: Comp. Attrib.,Field Availability,Number of Reactions,Number of References,Melting Point: Melting Point [C],Solvent (Melting Point),Location,Comment (Melting Point),Crystallizes With,Amount (Melting Point) [mol],References,Links to Reaxys.1
,O=CCN(=O)=O,1741530.0,https://www.reaxys.com/reaxys/secured/hopinto.do?context=S&query=IDE.XRN%3D1741530&database=RX&origin=ReaxysOutput&ln=,(1738 of 4000),44397-85-5,nitroacetaldehyde; 2-nitroacetaldehyde,C2H3NO3,C2H3NO3,89.0507,acyclic,,NMDSXWUKWSSJHD-UHFFFAOYSA-N,,,,Identification(11); Physical Data(2); Spectra(1),20.0,13.0,55,,,,,,"Article; Boileau; Memorial des Poudres; vol. 35; (1953); p. Annexe S. 7, 70;",https://www.reaxys.com/reaxys/secured/hopinto.do?context=C&query=CNR.CNR%3D1493892&database=RX&origin=ReaxysOutput&ln=
,NC(=O)C(O)=O,1743294.0,https://www.reaxys.com/reaxys/secured/hopinto.do?context=S&query=IDE.XRN%3D1743294&database=RX&origin=ReaxysOutput&ln=,(1739 of 4000),471-47-6,oxamic acid,H2NC(O)COOH,C2H3NO3,89.0507,acyclic,,SOWBFZRMHSNYGE-UHFFFAOYSA-N,,,,Identification(579); Physical Data(46); Spectra(25); Bioactivity(112),197.0,752.0,209.85,,,,,,"Article; Usherenko, L. N.; Fialko, M. B.; Kumok, V. N.; Skorik, A. I.; Journal of applied chemistry of the USSR; vol. 61; 8; (1988); p. 1559 - 1563; Zhurnal Prikladnoi Khimii (Sankt-Peterburg, Russian Federation); vol. 61; 8; (1988); p. 1737 - 1741;",https://www.reaxys.com/reaxys/secured/hopinto.do?context=C&query=CNR.CNR%3D5878795&database=RX&origin=ReaxysOutput&ln=
,[H]B([H])N([SiH3])[SiH3],16831721.0,https://www.reaxys.com/reaxys/secured/hopinto.do?context=S&query=IDE.XRN%3D16831721&database=RX&origin=ReaxysOutput&ln=,(1740 of 4000),27764-81-4,bis(silylamino) borane,((H3Si)2NBH2),BH8NSi2,89.0522,,,OFAKQKGOVRRXIK-UHFFFAOYSA-N,,,,Identification(5); Physical Data(2),9.0,5.0,-40 - -35,,,,,,"Article; Gmelin Handbuch der Anorganischen Chemie; vol. B: B-Verb.1; 3.5.3.1, page 255 - 258;; ; Article; Burg, A. B.; Kuljahn, E. S.; Journal of the American Chemical Society; vol. 72; (1950); p. 3103 - 3107;; ; Article; Gmelin Handbuch der Anorganischen Chemie; vol. B: B-Verb.4; 4.2.4, page 108 - 108; (from Gmelin)",https://www.reaxys.com/reaxys/secured/hopinto.do?context=C&query=CNR.CNR%3D7373239&database=RX&origin=ReaxysOutput&ln=
,[13CH3][13C](=O)C(N)=O,3537136.0,https://www.reaxys.com/reaxys/secured/hopinto.do?context=S&query=IDE.XRN%3D3537136&database=RX&origin=ReaxysOutput&ln=,(1741 of 4000),127350-52-1,"<2,3-13C2>Pyruvamide",C(13)C2H5NO2,C3H5NO2,89.0562,acyclic,,FPOLWERNILTNDK-ZDOIIHCHSA-N,,,,Identification(6); Physical Data(1); Spectra(3),2.0,1.0,120 - 123,,,,,,"Article; Roth, Patricia; Haedener, Alfons; Tamm, Christoph; Helvetica Chimica Acta; vol. 73; (1990); p. 476 - 482;",https://www.reaxys.com/reaxys/secured/hopinto.do?context=C&query=CNR.CNR%3D5507918&database=RX&origin=ReaxysOutput&ln=
,[2H]C1([2H])CNC(=O)O1,636958.0,https://www.reaxys.com/reaxys/secured/hopinto.do?context=S&query=IDE.XRN%3D636958&database=RX&origin=ReaxysOutput&ln=,(1742 of 4000),59099-89-7,"5,5-Dideuterio-2-oxazolidon; 5,5-dideuterio-oxazolidin-2-one",C3H3D2NO2,C3H5NO2,89.0623,heterocyclic,,IZXIZTKNFFYFOF-CBTSVUPCSA-N,,,,Identification(6); Physical Data(1); Spectra(1),1.0,1.0,85 - 87,,,,,,"Article; Brundrett et al.; Journal of Medicinal Chemistry; vol. 19; (1976); p. 958,961;",https://www.reaxys.com/reaxys/secured/hopinto.do?context=C&query=CNR.CNR%3D2747017&database=RX&origin=ReaxysOutput&ln=
,[2H]C1([2H])COC(=O)N1,636959.0,https://www.reaxys.com/reaxys/secured/hopinto.do?context=S&query=IDE.XRN%3D636959&database=RX&origin=ReaxysOutput&ln=,(1743 of 4000),59099-83-1,"4,4-Dideuterio-2-oxazolidon; 4,4-dideuterio-oxazolidin-2-one",C3H3D2NO2,C3H5NO2,89.0623,heterocyclic,,IZXIZTKNFFYFOF-DICFDUPASA-N,,,,Identification(6); Physical Data(1); Spectra(1),1.0,1.0,85 - 88,,,,,,"Article; Brundrett et al.; Journal of Medicinal Chemistry; vol. 19; (1976); p. 958,961;",https://www.reaxys.com/reaxys/secured/hopinto.do?context=C&query=CNR.CNR%3D2747017&database=RX&origin=ReaxysOutput&ln=
,C[14C](=O)C(N)=O,1702850.0,https://www.reaxys.com/reaxys/secured/hopinto.do?context=S&query=IDE.XRN%3D1702850&database=RX&origin=ReaxysOutput&ln=,(1744 of 4000),,[2-14C]pyruvamide; [2-14C]Pyruvamid,C2(14)CH5NO2,C3H5NO2,89.0672,acyclic,,FPOLWERNILTNDK-HQMMCQRPSA-N,,,,Identification(5); Physical Data(1),1.0,1.0,127,ethyl acetate,,,,,Article; Anker; Journal of Biological Chemistry; vol. 176; (1948); p. 1334;,https://www.reaxys.com/reaxys/secured/hopinto.do?context=C&query=CNR.CNR%3D1146023&database=RX&origin=ReaxysOutput&ln=
,NC(=O)C(F)=C,1848910.0,https://www.reaxys.com/reaxys/secured/hopinto.do?context=S&query=IDE.XRN%3D1848910&database=RX&origin=ReaxysOutput&ln=,(1745 of 4000),1737-78-6,2-Fluoropropenamide; α-Fluoracrylsaeureamid; α-Fluoracrylamid; 2-Fluor-acrylsaeure-amid; 2-Fluor-acrylamid,C3H4FNO,C3H4FNO,89.0693,acyclic,,QLGUMAKHZODJET-UHFFFAOYSA-N,,,,Identification(20); Physical Data(4); Spectra(1),8.0,17.0,114 - 115,,,,,,"Article; Gassen, K.-R.; Bielefeldt, D.; Marhold, A.; Andres P.; Journal of Fluorine Chemistry; vol. 55; 2; (1991); p. 149 - 162;",https://www.reaxys.com/reaxys/secured/hopinto.do?context=C&query=CNR.CNR%3D5650328&database=RX&origin=ReaxysOutput&ln=
,CC(O)C(N)=O,506217.0,https://www.reaxys.com/reaxys/secured/hopinto.do?context=S&query=IDE.XRN%3D506217&database=RX&origin=ReaxysOutput&ln=,(1746 of 4000),598-81-2; 2043-43-8; 65144-02-7; 89673-71-2,"(+/-)-lactamide; 2-hydroxypropanamide; lactic acid amide; D,L-lactamide; α-hydroxypropanamide",C3H7NO2,C3H7NO2,89.0941,acyclic,,SXQFCVDSOLSHOQ-UHFFFAOYSA-N,,,,Identification(42); Physical Data(42); Spectra(14); Bioactivity(12),109.0,152.0,74.6 - 76.8,,supporting information,,,,"Article; Kanda, Tomoya; Naraoka, Asuka; Naka, Hiroshi; Journal of the American Chemical Society; vol. 141; 2; (2019); p. 825 - 830;",https://www.reaxys.com/reaxys/secured/hopinto.do?context=C&query=CNR.CNR%3D75760147&database=RX&origin=ReaxysOutput&ln=
,CC(=O)NCO,506226.0,https://www.reaxys.com/reaxys/secured/hopinto.do?context=S&query=IDE.XRN%3D506226&database=RX&origin=ReaxysOutput&ln=,(1747 of 4000),625-51-4,N-(hydroxymethyl)acetamide; acetamidomethanol; isethionic acid hydroxymethylamide,CH3CONHCH2OH,C3H7NO2,89.0941,acyclic,,HWJHZLJIIWOTGZ-UHFFFAOYSA-N,,,,Identification(44); Physical Data(15); Spectra(7); Bioactivity(9),152.0,149.0,36 - 39,,,,,,"Article; Fischer, Gordon C.; Turakhia, Rajesh H.; Morrow, Cary J.; Journal of Organic Chemistry; vol. 50; 12; (1985); p. 2011 - 2019;",https://www.reaxys.com/reaxys/secured/hopinto.do?context=C&query=CNR.CNR%3D5699278&database=RX&origin=ReaxysOutput&ln=
,CCCN(=O)=O,506236.0,https://www.reaxys.com/reaxys/secured/hopinto.do?context=S&query=IDE.XRN%3D506236&database=RX&origin=ReaxysOutput&ln=,(1748 of 4000),108-03-2,1-Nitropropane; Nitropropane,CH3(CH2)2NO2,C3H7NO2,89.0941,acyclic,,JSZOAYXJRCEYSX-UHFFFAOYSA-N,,,,Identification(628); Physical Data(269); Spectra(64); Bioactivity(105),1831.0,1953.0,-103.99,,,,,,Article; Toops; Journal of Physical Chemistry; vol. 60; (1956); p. 304;,https://www.reaxys.com/reaxys/secured/hopinto.do?context=C&query=CNR.CNR%3D1391526&database=RX&origin=ReaxysOutput&ln=
,CC(N)C(O)=O,635807.0,https://www.reaxys.com/reaxys/secured/hopinto.do?context=S&query=IDE.XRN%3D635807&database=RX&origin=ReaxysOutput&ln=,(1749 of 4000),302-72-7,"Alanine; D,L-alanine; rac-Ala-OH",CH3CHNH2CO2H,C3H7NO2,89.0941,acyclic,,QNAYBMKLOCPYGJ-UHFFFAOYSA-N,,,,Identification(5525); Physical Data(843); Spectra(112); Bioactivity(496),2308.0,8302.0,260 - 261,,,,,,"Article; Bocharova et al.; (1978); p. 77,78-85; Chem.Abstr.; vol. 91; 21032f; Chemisches Zentralblatt; Ref. Zh. Khim. &lt;1979&gt; 3 E 144;",https://www.reaxys.com/reaxys/secured/hopinto.do?context=C&query=CNR.CNR%3D4195134&database=RX&origin=ReaxysOutput&ln=
,CCOC(N)=O,635810.0,https://www.reaxys.com/reaxys/secured/hopinto.do?context=S&query=IDE.XRN%3D635810&database=RX&origin=ReaxysOutput&ln=,(1750 of 4000),51-79-6,urethane; carbamic acid ethyl ester,H2NCOOC2H5,C3H7NO2,89.0941,acyclic,,JOYRKODLDBILNP-UHFFFAOYSA-N,,,,Identification(9672); Physical Data(350); Spectra(61); Bioactivity(661),1824.0,10771.0,45 - 46,diethyl ether,,,,,"Article; Sardarian, Ali Reza; Inaloo, Iman Dindarloo; RSC Advances; vol. 5; 93; (2015); p. 76626 - 76641;",https://www.reaxys.com/reaxys/secured/hopinto.do?context=C&query=CNR.CNR%3D67087372&database=RX&origin=ReaxysOutput&ln=
,COC(=O)CN,635818.0,https://www.reaxys.com/reaxys/secured/hopinto.do?context=S&query=IDE.XRN%3D635818&database=RX&origin=ReaxysOutput&ln=,(1751 of 4000),616-34-2,methoxycarbonylmethylamine; glycine methyl ester,CH3OCOCH2NH2,C3H7NO2,89.0941,acyclic,,KQSSATDQUYCRGS-UHFFFAOYSA-N,,,,Identification(424); Physical Data(86); Spectra(29); Bioactivity(96),1913.0,1697.0,174 - 175,,Paragraph 0025,,,,Patent; ADOBECHEM; CN110305067; (2019); A;,https://www.reaxys.com/reaxys/secured/hopinto.do?context=C&query=CNR.CNR%3D77881309&database=RX&origin=ReaxysOutput&ln=
,OCCNC=O,635840.0,https://www.reaxys.com/reaxys/secured/hopinto.do?context=S&query=IDE.XRN%3D635840&database=RX&origin=ReaxysOutput&ln=,(1752 of 4000),693-06-1,(2-hydroxyethyl)-formamide; N-(2-Hydroxyethyl)formamide,C3H7NO2,C3H7NO2,89.0941,acyclic,,BAMUPQJDKBGDPU-UHFFFAOYSA-N,,,,Identification(79); Physical Data(30); Spectra(38); Bioactivity(11),60.0,137.0,110 - 112,,,,,,"Article; Tauhardt, Lutz; Kempe, Kristian; Schubert, Ulrich S.; Journal of Polymer Science, Part A: Polymer Chemistry; vol. 50; 21; (2012); p. 4516 - 4523,8;",https://www.reaxys.com/reaxys/secured/hopinto.do?context=C&query=CNR.CNR%3D80771534&database=RX&origin=ReaxysOutput&ln=
,NCCC(O)=O,906793.0,https://www.reaxys.com/reaxys/secured/hopinto.do?context=S&query=IDE.XRN%3D906793&database=RX&origin=ReaxysOutput&ln=,(1753 of 4000),107-95-9,3-amino propanoic acid; β-alanine; H-β-Ala-OH; 3-aminopropionic acid; β-Ala; beta-alanine; aminopropionic acid; β-Ala-OH,H2NC2H4CO2H,C3H7NO2,89.0941,acyclic,,UCMIRNVEIXFBKS-UHFFFAOYSA-N,,,,Identification(5186); Physical Data(530); Spectra(119); Bioactivity(563),2385.0,7555.0,213.23,,,,,,"Article; Vraneš, Milan; Panić, Jovana; Tot, Aleksandar; Papović, Snežana; Gadžurić, Slobodan; Podlipnik, Črtomir; Bešter-Rogač, Marija; Journal of Molecular Liquids; vol. 328; (2021);",https://www.reaxys.com/reaxys/secured/hopinto.do?context=C&query=CNR.CNR%3D82621419&database=RX&origin=ReaxysOutput&ln=
,CNC(=O)CO,1209343.0,https://www.reaxys.com/reaxys/secured/hopinto.do?context=S&query=IDE.XRN%3D1209343&database=RX&origin=ReaxysOutput&ln=,(1754 of 4000),5415-94-1,2-hydroxy-N-methylacetamide,C3H7NO2,C3H7NO2,89.0941,acyclic,,WFAFGNCZWMJZCK-UHFFFAOYSA-N,,,,Identification(20); Physical Data(10); Spectra(11),39.0,32.0,56 - 58,diethyl ether,supporting information,,,,"Article; Pawlak, Dorota; Schielmann, Marta; Wojciechowski, Marek; Andruszkiewicz, Ryszard; Bioorganic and Medicinal Chemistry Letters; vol. 26; 15; (2016); p. 3586 - 3589;",https://www.reaxys.com/reaxys/secured/hopinto.do?context=C&query=CNR.CNR%3D69264137&database=RX&origin=ReaxysOutput&ln=
,CNCC(O)=O,1699442.0,https://www.reaxys.com/reaxys/secured/hopinto.do?context=S&query=IDE.XRN%3D1699442&database=RX&origin=ReaxysOutput&ln=,(1755 of 4000),107-97-1,sarcosine; N-methylglycin,H3CNHCH2CO2H,C3H7NO2,89.0941,acyclic,,FSYKKLYZXJSNPZ-UHFFFAOYSA-N,,,,Identification(4538); Physical Data(159); Spectra(69); Bioactivity(404),5879.0,6370.0,208 - 212,,,,,,"Article; Cocinero, Emilio J.; Villanueva, Pablo; Lesarri, Alberto; Sanz, M. Eugenia; Blanco, Susana; Mata, Santiago; López, Juan C.; Alonso, José L.; Chemical Physics Letters; vol. 435; 4-6; (2007); p. 336 - 341;",https://www.reaxys.com/reaxys/secured/hopinto.do?context=C&query=CNR.CNR%3D7189840&database=RX&origin=ReaxysOutput&ln=
,[H][C@@](C)(O)C(N)=O,1720241.0,https://www.reaxys.com/reaxys/secured/hopinto.do?context=S&query=IDE.XRN%3D1720241&database=RX&origin=ReaxysOutput&ln=,(1756 of 4000),2043-43-8,(S)-(-)-lactamide; (2S)-2-hydroxypropanamide; (S)-2-hydroxypropanamide,C3H7NO2,C3H7NO2,89.0941,acyclic,,SXQFCVDSOLSHOQ-REOHCLBHSA-N,,,,Identification(14); Physical Data(6); Spectra(7); Bioactivity(4),43.0,44.0,54,,,,,,Article; Timmermans; van Lancker; Jaffe; Bulletin des Societes Chimiques Belges; vol. 48; (1939); p. 56 Anm.2;,https://www.reaxys.com/reaxys/secured/hopinto.do?context=C&query=CNR.CNR%3D1479982&database=RX&origin=ReaxysOutput&ln=
,[H][C@](C)(O)C(N)=O,1720242.0,https://www.reaxys.com/reaxys/secured/hopinto.do?context=S&query=IDE.XRN%3D1720242&database=RX&origin=ReaxysOutput&ln=,(1757 of 4000),598-81-2,(R)-lactamide; (2R)-2-hydroxypropanamide; (R)-2-hydroxypropanamide; (R)-2-hydroxypropionamide,C2H(CH3)(NH2)OOH,C3H7NO2,89.0941,acyclic,,SXQFCVDSOLSHOQ-UWTATZPHSA-N,,,,Identification(11); Physical Data(8); Spectra(6); Bioactivity(3),99.0,37.0,53.9,,,,,,Article; Timmermans; van Lancker; Jaffe; Bulletin des Societes Chimiques Belges; vol. 48; (1939); p. 56 Anm.2;,https://www.reaxys.com/reaxys/secured/hopinto.do?context=C&query=CNR.CNR%3D1479982&database=RX&origin=ReaxysOutput&ln=
,C\C(CO)=N\O,1737855.0,https://www.reaxys.com/reaxys/secured/hopinto.do?context=S&query=IDE.XRN%3D1737855&database=RX&origin=ReaxysOutput&ln=,(1758 of 4000),134252-16-7,1-hydroxy-2-propanone oxime; hydroxyacetone oxime; Hydroxy-aceton-oxim; Acetol-oxim; Propanol-(1)-oxim-(2); Acetylcarbinol-oxim; Oxyacetoxim,C3H7NO2,C3H7NO2,89.0941,acyclic,,KJOVOWDUYRMJEG-ARJAWSKDSA-N,,,,Identification(9); Physical Data(7); Spectra(1),12.0,9.0,78,,,,,,"Article; Trofimov, B. A.; Oleinikova, E. B.; Sigalov, M. V.; Skvortsov, Yu. M.; Mikhaleva, A. I.; Journal of Organic Chemistry USSR (English Translation); vol. 16; (1980); p. 366 - 370; Zhurnal Organicheskoi Khimii; vol. 16; 2; (1980); p. 410 - 415;",https://www.reaxys.com/reaxys/secured/hopinto.do?context=C&query=CNR.CNR%3D5635454&database=RX&origin=ReaxysOutput&ln=
,COCC(N)=O,1740196.0,https://www.reaxys.com/reaxys/secured/hopinto.do?context=S&query=IDE.XRN%3D1740196&database=RX&origin=ReaxysOutput&ln=,(1759 of 4000),16332-06-2,methoxyacetamide; 2-methoxyacetamide; 2-(methoxy)ethylamide,C3H7NO2,C3H7NO2,89.0941,acyclic,,MTEZLAATISORQK-UHFFFAOYSA-N,,,,Identification(33); Physical Data(15); Spectra(11); Bioactivity(5),36.0,73.0,96.2 - 96.9,,,,,,"Article; Matsuoka, Aki; Isogawa, Takahiro; Morioka, Yuna; Knappett, Benjamin R.; Wheatley, Andrew E. H.; Saito, Susumu; Naka, Hiroshi; RSC Advances; vol. 5; 16; (2015); p. 12152 - 12160;",https://www.reaxys.com/reaxys/secured/hopinto.do?context=C&query=CNR.CNR%3D65213499&database=RX&origin=ReaxysOutput&ln=
,CCO\C=N\O,1740279.0,https://www.reaxys.com/reaxys/secured/hopinto.do?context=S&query=IDE.XRN%3D1740279&database=RX&origin=ReaxysOutput&ln=,(1760 of 4000),146464-48-4,ethyl formhydroximate; formohydroximic acid ethyl ester; Formohydroximsaeure-aethylester,C3H7NO2,C3H7NO2,89.0941,acyclic,,LWZHQJFIHKRLKK-ONEGZZNKSA-N,,,,Identification(6); Physical Data(4); Spectra(2),14.0,3.0,80,CCl4,,,,,Article; Houben; Journal fur praktische Chemie (Leipzig 1954); vol. &lt;2&gt;105; (1922); p. 24;,https://www.reaxys.com/reaxys/secured/hopinto.do?context=C&query=CNR.CNR%3D1130774&database=RX&origin=ReaxysOutput&ln=
,CCC(=O)NO,1740282.0,https://www.reaxys.com/reaxys/secured/hopinto.do?context=S&query=IDE.XRN%3D1740282&database=RX&origin=ReaxysOutput&ln=,(1761 of 4000),2580-63-4; 875452-10-1; 875452-12-3,propionohydroxamic acid; N-hydroxy-propanamide; Propionohydroxamsaeure,CH3CH2CONHOH,C3H7NO2,89.0941,acyclic,,RSIPQHOWTCNEBI-UHFFFAOYSA-N,,,,Identification(32); Physical Data(29); Spectra(17); Bioactivity(5),35.0,66.0,96 - 98,,supporting information,,methanol; acetone,,"Article; Wilfong, Erin M.; Du, Yu; Toone, Eric J.; Bioorganic and Medicinal Chemistry Letters; vol. 22; 20; (2012); p. 6521 - 6524;",https://www.reaxys.com/reaxys/secured/hopinto.do?context=C&query=CNR.CNR%3D20203224&database=RX&origin=ReaxysOutput&ln=
,NC(=O)CCO,1740477.0,https://www.reaxys.com/reaxys/secured/hopinto.do?context=S&query=IDE.XRN%3D1740477&database=RX&origin=ReaxysOutput&ln=,(1762 of 4000),2651-43-6,3-hydroxypropionamide; 3-hydroxypropanamide; 3-Hydroxy-propionsaeure-amid; β-Hydroxy-propionamid,C3H7NO2,C3H7NO2,89.0941,acyclic,,SMGLHFBQMBVRCP-UHFFFAOYSA-N,,,,Identification(29); Physical Data(13); Spectra(14); Bioactivity(5),38.0,54.0,102 - 105,,supporting information,,,,"Article; Battilocchio, Claudio; Hawkins, Joel M.; Ley, Steven V.; Organic Letters; vol. 16; 4; (2014); p. 1060 - 1063;",https://www.reaxys.com/reaxys/secured/hopinto.do?context=C&query=CNR.CNR%3D69749648&database=RX&origin=ReaxysOutput&ln=
,CCNC(O)=O,1740514.0,https://www.reaxys.com/reaxys/secured/hopinto.do?context=S&query=IDE.XRN%3D1740514&database=RX&origin=ReaxysOutput&ln=,(1763 of 4000),7409-13-4,Aethylcarbamat; N-Ethyl-urethan; N-Ethyl-carbaminsaeure; N-ethylglycine; ethyl-carbamic acid; Kohlensaeure-aethylamid; Aethyl-carbamidsaeure; N-ethylurethane,C2H5NHCOOH,C3H7NO2,89.0941,acyclic,,KWBIXTIBYFUAGV-UHFFFAOYSA-N,,,,Identification(12); Physical Data(5); Spectra(2),7.0,13.0,48 - 50,,,,,,"Article; Hedin et al.; Analytical Chemistry; vol. 42; (1970); p. 403,404;",https://www.reaxys.com/reaxys/secured/hopinto.do?context=C&query=CNR.CNR%3D3951234&database=RX&origin=ReaxysOutput&ln=
,CC(C)N(=O)=O,1740684.0,https://www.reaxys.com/reaxys/secured/hopinto.do?context=S&query=IDE.XRN%3D1740684&database=RX&origin=ReaxysOutput&ln=,(1764 of 4000),79-46-9,2-nitropropane,CH3CH(NO2)CH3,C3H7NO2,89.0941,acyclic,,FGLBSLMDCBOPQK-UHFFFAOYSA-N,,,,Identification(456); Physical Data(267); Spectra(72); Bioactivity(122),1677.0,1777.0,-91.32,,,,,,Article; Toops; Journal of Physical Chemistry; vol. 60; (1956); p. 304;,https://www.reaxys.com/reaxys/secured/hopinto.do?context=C&query=CNR.CNR%3D1391526&database=RX&origin=ReaxysOutput&ln=
,OCC\C=N\O,2070772.0,https://www.reaxys.com/reaxys/secured/hopinto.do?context=S&query=IDE.XRN%3D2070772&database=RX&origin=ReaxysOutput&ln=,(1765 of 4000),,3-Hydroxy-propionamidoxim,C3H7NO2,C3H7NO2,89.0941,acyclic,,DANFQIDGSGBMPH-DUXPYHPUSA-N,,,,Identification(6); Physical Data(1),1.0,1.0,92 - 94,,,,,,Patent; PFIZER INC; HUBBARD MELVIN L; US3074957; (1960); A; Chem.Abstr.; vol. 58; 10323g; (1963); Chem.Abstr.; vol. 58; 10323g; (1963);,https://www.reaxys.com/reaxys/secured/hopinto.do?context=C&query=CNR.CNR%3D3060833&database=RX&origin=ReaxysOutput&ln=
,CO\C(C)=N/O,2203174.0,https://www.reaxys.com/reaxys/secured/hopinto.do?context=S&query=IDE.XRN%3D2203174&database=RX&origin=ReaxysOutput&ln=,(1766 of 4000),20703-38-2,anti-1-Methoxyethanal-oxim; (Z)-Acethydroximsaeure-methylester; syn-1-Methoxyethanal-oxim; Methyl-(Z)-acetoxy-hydroxymat,C3H7NO2,C3H7NO2,89.0941,acyclic,,JCXVPCYMKJTPEE-ARJAWSKDSA-N,,,,Identification(11); Physical Data(7); Spectra(3),9.0,5.0,115 - 118,,,,,,"Article; Ketz; Zinner; Archiv der Pharmazie; vol. 311; (1978); p. 525,526;",https://www.reaxys.com/reaxys/secured/hopinto.do?context=C&query=CNR.CNR%3D4188700&database=RX&origin=ReaxysOutput&ln=
,CO\C(C)=N\O,2321970.0,https://www.reaxys.com/reaxys/secured/hopinto.do?context=S&query=IDE.XRN%3D2321970&database=RX&origin=ReaxysOutput&ln=,(1767 of 4000),20703-37-1,(E)-Acethydroximsaeure-methylester; Methyl-(E)-acetoxy-hydroxymat; methyl N-hydroxyacetimidate,C3H7NO2,C3H7NO2,89.0941,acyclic,,JCXVPCYMKJTPEE-ONEGZZNKSA-N,,,,Identification(8); Physical Data(2); Spectra(3),19.0,5.0,28,,,,,,"Article; Ketz; Zinner; Archiv der Pharmazie; vol. 311; (1978); p. 525,526;",https://www.reaxys.com/reaxys/secured/hopinto.do?context=C&query=CNR.CNR%3D4188700&database=RX&origin=ReaxysOutput&ln=