Structure: Image,SMILES,Substance Identification: Reaxys Registry Number,Links to Reaxys,Data Count,CAS Registry Number,Chemical Name,Linear Structure Formula,Molecular Formula,Molecular Weight,Type of Substance,Type and Modification,InChI Key,Composition: Comp. Name,Composition: Comp. Conc.,Composition: Comp. Attrib.,Field Availability,Number of Reactions,Number of References,Melting Point: Melting Point [C],Solvent (Melting Point),Location,Comment (Melting Point),Crystallizes With,Amount (Melting Point) [mol],References,Links to Reaxys.1
,CCN=C=S,1737705.0,https://www.reaxys.com/reaxys/secured/hopinto.do?context=S&query=IDE.XRN%3D1737705&database=RX&origin=ReaxysOutput&ln=,(1570 of 4000),542-85-8,Ethyl isothiocyanate,SCNCH2CH3,C3H5NS,87.1454,acyclic,,HBNYJWAFDZLWRS-UHFFFAOYSA-N,,,,Identification(197); Physical Data(87); Spectra(69); Bioactivity(95),2060.0,1623.0,105 - 107,ethanol; hexane,,,,,"Article; Keller, Thomas H.; Yelland, Lois J.; Benn, M. H.; Canadian Journal of Chemistry; vol. 62; (1984); p. 437 - 440;",https://www.reaxys.com/reaxys/secured/hopinto.do?context=C&query=CNR.CNR%3D5680576&database=RX&origin=ReaxysOutput&ln=
,CCCCCN,505953.0,https://www.reaxys.com/reaxys/secured/hopinto.do?context=S&query=IDE.XRN%3D505953&database=RX&origin=ReaxysOutput&ln=,(1571 of 4000),110-58-7,1-pentanamine; n-Pentylamine,NH2CH2CH2CH2CH2CH3,C5H13N,87.1649,acyclic,,DPBLXKKOBLCELK-UHFFFAOYSA-N,,,,Identification(877); Physical Data(253); Spectra(55); Bioactivity(172),3815.0,2956.0,-50,,supporting information,,,,"Article; Yamanaka, Shoji; Umemoto, Keita; Zheng, Zhanfeng; Suzuki, Yuta; Matsui, Hiroshi; Toyota, Naoki; Inumaru, Kei; Journal of Materials Chemistry; vol. 22; 21; (2012); p. 10752 - 10762;",https://www.reaxys.com/reaxys/secured/hopinto.do?context=C&query=CNR.CNR%3D20162503&database=RX&origin=ReaxysOutput&ln=
,CC(C)C(C)N,635656.0,https://www.reaxys.com/reaxys/secured/hopinto.do?context=S&query=IDE.XRN%3D635656&database=RX&origin=ReaxysOutput&ln=,(1572 of 4000),598-74-3,2-amino-3-methylbutane; 3-methyl-2-butylamine,NH2CH(CH3)CH(CH3)2,C5H13N,87.1649,acyclic,,JOZZAIIGWFLONA-UHFFFAOYSA-N,,,,Identification(64); Physical Data(24); Spectra(10); Bioactivity(13),231.0,220.0,85 - 87,,,,,,Article; Silver; Journal of the American Chemical Society; vol. 82; (1960); p. 2971;,https://www.reaxys.com/reaxys/secured/hopinto.do?context=C&query=CNR.CNR%3D3829576&database=RX&origin=ReaxysOutput&ln=
,CC(C)CCN,1209230.0,https://www.reaxys.com/reaxys/secured/hopinto.do?context=S&query=IDE.XRN%3D1209230&database=RX&origin=ReaxysOutput&ln=,(1573 of 4000),107-85-7,1-amino-3-methylbutane; ISOAMYLAMINE,NH2CH2CH2CH(CH3)2,C5H13N,87.1649,acyclic,,BMFVGAAISNGQNM-UHFFFAOYSA-N,,,,Identification(411); Physical Data(97); Spectra(26); Bioactivity(96),2524.0,1694.0,-68,,,,,,Article; Pouyet; Bulletin de la Societe Chimique de France; (1964); p. 2582;,https://www.reaxys.com/reaxys/secured/hopinto.do?context=C&query=CNR.CNR%3D4420393&database=RX&origin=ReaxysOutput&ln=
,CCCCNC,1209231.0,https://www.reaxys.com/reaxys/secured/hopinto.do?context=S&query=IDE.XRN%3D1209231&database=RX&origin=ReaxysOutput&ln=,(1574 of 4000),110-68-9,N-n-butyl-N-methylamine; N-Methylbutylamine,HN(CH3)C4H9,C5H13N,87.1649,acyclic,,QCOGKXLOEWLIDC-UHFFFAOYSA-N,,,,Identification(211); Physical Data(87); Spectra(30); Bioactivity(46),1190.0,884.0,-75,,,,,,Article; Timmermans; Mattaar; Bulletin des Societes Chimiques Belges; vol. 30; (1921); p. 214; Chemisches Zentralblatt; vol. 92; III; (1921); p. 1266;,https://www.reaxys.com/reaxys/secured/hopinto.do?context=C&query=CNR.CNR%3D559456&database=RX&origin=ReaxysOutput&ln=
,CC(C)N(C)C,1696929.0,https://www.reaxys.com/reaxys/secured/hopinto.do?context=S&query=IDE.XRN%3D1696929&database=RX&origin=ReaxysOutput&ln=,(1575 of 4000),996-35-0,"N,N-dimethylisopropyl amine; dimethylisopropylamine; isopropyldimethylamine; DMIPA; Dimethyl-i-propylamin",(CH3)4CHN,C5H13N,87.1649,acyclic,,VMOWKUTXPNPTEN-UHFFFAOYSA-N,,,,Identification(118); Physical Data(57); Spectra(22),135.0,186.0,,,,,,,"Article; Michelot,R.; Bulletin de la Societe Chimique de France; (1969); p. 4377 - 4385;",https://www.reaxys.com/reaxys/secured/hopinto.do?context=C&query=CNR.CNR%3D119978&database=RX&origin=ReaxysOutput&ln=
,[H][C@@](C)(N)C(C)C,1718797.0,https://www.reaxys.com/reaxys/secured/hopinto.do?context=S&query=IDE.XRN%3D1718797&database=RX&origin=ReaxysOutput&ln=,(1576 of 4000),22526-46-1,(2S)-3-methylbutan-2-amine; (S)-2-amino-3-methylbutane; (S)-3-methyl-2-butylamine; (S)-3-methylbutan-2-amine,C5H13N,C5H13N,87.1649,acyclic,,JOZZAIIGWFLONA-YFKPBYRVSA-N,,,,Identification(47); Physical Data(8); Spectra(2),175.0,92.0,35 - 37,,,,,,"Article; Quagliato, Dominick A.; Andrae, Patrick M.; Matelan, Edward M.; Journal of Organic Chemistry; vol. 65; 16; (2000); p. 5037 - 5042;",https://www.reaxys.com/reaxys/secured/hopinto.do?context=C&query=CNR.CNR%3D6250736&database=RX&origin=ReaxysOutput&ln=
,CCC(C)CN,1718806.0,https://www.reaxys.com/reaxys/secured/hopinto.do?context=S&query=IDE.XRN%3D1718806&database=RX&origin=ReaxysOutput&ln=,(1577 of 4000),96-15-1,2-Methylbutylamine,NH2CH2CH(CH3)CH2CH3,C5H13N,87.1649,acyclic,,VJROPLWGFCORRM-UHFFFAOYSA-N,,,,Identification(97); Physical Data(13); Spectra(12); Bioactivity(17),314.0,270.0,94 - 96.5,,,,,,Article; Seigle; Hass; Industrial and Engineering Chemistry; vol. 31; (1939); p. 648;,https://www.reaxys.com/reaxys/secured/hopinto.do?context=C&query=CNR.CNR%3D1329916&database=RX&origin=ReaxysOutput&ln=
,CCN(C)CC,1730930.0,https://www.reaxys.com/reaxys/secured/hopinto.do?context=S&query=IDE.XRN%3D1730930&database=RX&origin=ReaxysOutput&ln=,(1578 of 4000),616-39-7,"N,N-diethylnmethylamine; diethylmethylamine",(C2H5)2NCH3,C5H13N,87.1649,acyclic,,GNVRJGIVDSQCOP-UHFFFAOYSA-N,,,,Identification(193); Physical Data(112); Spectra(32); Bioactivity(20),227.0,369.0,-196,,,,,,"Article; Spialter; Pappalardo; Journal of Organic Chemistry; vol. 22; (1957); p. 840,842;",https://www.reaxys.com/reaxys/secured/hopinto.do?context=C&query=CNR.CNR%3D1256656&database=RX&origin=ReaxysOutput&ln=
,CCC(C)(C)N,1730949.0,https://www.reaxys.com/reaxys/secured/hopinto.do?context=S&query=IDE.XRN%3D1730949&database=RX&origin=ReaxysOutput&ln=,(1579 of 4000),594-39-8,"2-methyl-2-butylamine; 1,1-dimethylpropylamine",C2H5C(CH3)2NH2,C5H13N,87.1649,acyclic,,GELMWIVBBPAMIO-UHFFFAOYSA-N,,,,Identification(89); Physical Data(36); Spectra(7); Bioactivity(21),727.0,395.0,-105,,,,,,Article; Timmermans; Mattaar; Bulletin des Societes Chimiques Belges; vol. 30; (1921); p. 214; Chemisches Zentralblatt; vol. 92; III; (1921); p. 1266;,https://www.reaxys.com/reaxys/secured/hopinto.do?context=C&query=CNR.CNR%3D559456&database=RX&origin=ReaxysOutput&ln=
,CNCC(C)C,1730970.0,https://www.reaxys.com/reaxys/secured/hopinto.do?context=S&query=IDE.XRN%3D1730970&database=RX&origin=ReaxysOutput&ln=,(1580 of 4000),625-43-4,2-methylpropyl(methyl)amine; isobutylmethylamine,C5H13N,C5H13N,87.1649,acyclic,,QKYWADPCTHTJHQ-UHFFFAOYSA-N,,,,Identification(46); Physical Data(14); Spectra(10),208.0,172.0,78,,,,,,Patent; ENI SPA; COOPER COMPANIES INC; SAIPEM SPA; DE2748293; (1978); A1; Chem.Abstr.; vol. 89; 42405; Chem.Abstr.; vol. 89; 42405;,https://www.reaxys.com/reaxys/secured/hopinto.do?context=C&query=CNR.CNR%3D4508826&database=RX&origin=ReaxysOutput&ln=
,CC(C)(C)CN,1730983.0,https://www.reaxys.com/reaxys/secured/hopinto.do?context=S&query=IDE.XRN%3D1730983&database=RX&origin=ReaxysOutput&ln=,(1581 of 4000),5813-64-9,"2,2-dimethylpropylamine; neopentylamine",NH2CH2C(CH3)3,C5H13N,87.1649,acyclic,,XDIAMRVROCPPBK-UHFFFAOYSA-N,,,,Identification(137); Physical Data(66); Spectra(21); Bioactivity(44),1705.0,845.0,-57.5,,,Crystallization with 1 Mol(s) H2O,,,"Article; Favier, Roland; Rosso, Jean-Claude; Carbonnel, Luce; Bulletin de la Societe Chimique de France; vol. 1; 5-6; (1981); p. 225 - 235;",https://www.reaxys.com/reaxys/secured/hopinto.do?context=C&query=CNR.CNR%3D5666671&database=RX&origin=ReaxysOutput&ln=
,Cl\C=C\C#N,506121.0,https://www.reaxys.com/reaxys/secured/hopinto.do?context=S&query=IDE.XRN%3D506121&database=RX&origin=ReaxysOutput&ln=,(1583 of 4000),871-29-4; 3721-37-7; 3721-38-8,trans-β-Chlor-acrylnitril; trans-3-Chlor-acrylnitril; (E)-3-chloropropenenitrile; trans-3-Chlor-acrylonitril; trans-β-chloroacrylonitrile,C3H2ClN,C3H2ClN,87.5086,acyclic,,DKFAYHWIVQDPCC-OWOJBTEDSA-N,,,,Identification(13); Physical Data(12); Spectra(7),42.0,21.0,45,diethyl ether,,,,,"Article; Prochazka, Milos; Zaruba, Arno; Collection of Czechoslovak Chemical Communications; vol. 48; 1; (1983); p. 89 - 95;",https://www.reaxys.com/reaxys/secured/hopinto.do?context=C&query=CNR.CNR%3D5560530&database=RX&origin=ReaxysOutput&ln=
,Cl\C=C/C#N,1719982.0,https://www.reaxys.com/reaxys/secured/hopinto.do?context=S&query=IDE.XRN%3D1719982&database=RX&origin=ReaxysOutput&ln=,(1584 of 4000),3721-37-7,cis-β-Chlor-acrylnitril; (Z)-3-Chloropropenenitrile; cis-3-Chlor-acrylnitril; cis-3-Chlor-acrylonitril,C3H2ClN,C3H2ClN,87.5086,acyclic,,DKFAYHWIVQDPCC-UPHRSURJSA-N,,,,Identification(11); Physical Data(14); Spectra(10),40.0,14.0,42 - 44,,,,,,"Article; Kurtz et al.; Journal of Organic Chemistry; vol. 30; (1965); p. 3141,3146;",https://www.reaxys.com/reaxys/secured/hopinto.do?context=C&query=CNR.CNR%3D1188548&database=RX&origin=ReaxysOutput&ln=
,[Li].N.O.O.O.[K],34508470.0,https://www.reaxys.com/reaxys/secured/hopinto.do?context=S&query=IDE.XRN%3D34508470&database=RX&origin=ReaxysOutput&ln=,(1585 of 4000),,,Li0.42K0.58NO3,K0Li0NO3,87.5971,,,YQEDGUSKJHWJQV-UHFFFAOYSA-N,,,,Identification(5); Physical Data(1); Spectra(2),2.0,2.0,132.6,,,,,,"Article; Gafurov; Rabadanov, K.Sh.; Ataev; Amirov; Akhmedov; Shabanov; Kubataev, Z.Yu.; Rabadanova; Spectrochimica Acta Part A: Molecular and Biomolecular Spectroscopy; vol. 257; (2021);",https://www.reaxys.com/reaxys/secured/hopinto.do?context=C&query=CNR.CNR%3D84169826&database=RX&origin=ReaxysOutput&ln=
,[Li].N.O.O.O.Cl,37547228.0,https://www.reaxys.com/reaxys/secured/hopinto.do?context=S&query=IDE.XRN%3D37547228&database=RX&origin=ReaxysOutput&ln=,(1586 of 4000),,,(LiNO3)0.5(LiClO4)0.5,Cl0LiN0O3,87.6688,,,IUJYHTZYXNGVLT-UHFFFAOYSA-N,,,,Identification(5); Physical Data(1); Spectra(1),,1.0,169.9,,,,,,"Article; Gafurov; Rabadanov, K.Sh.; Ataev; Amirov; Akhmedov; Shabanov; Kubataev, Z.Yu.; Rabadanova; Spectrochimica Acta Part A: Molecular and Biomolecular Spectroscopy; vol. 257; (2021);",https://www.reaxys.com/reaxys/secured/hopinto.do?context=C&query=CNR.CNR%3D84169826&database=RX&origin=ReaxysOutput&ln=
,[2H]O[2H].FB(F)F,16865170.0,https://www.reaxys.com/reaxys/secured/hopinto.do?context=S&query=IDE.XRN%3D16865170&database=RX&origin=ReaxysOutput&ln=,(1592 of 4000),33598-66-2,,BF3*D2O,BF3*H2O,87.8056,Isotope or isotope containing compound,,MVJKXJPDBTXECY-ZSJDYOACSA-N,,,,Identification(5); Physical Data(4),2.0,6.0,11 - 11.1,,,,,,"Article; Greenwood, N. N.; Journal of Inorganic and Nuclear Chemistry; vol. 5; (1958); p. 224 - 228;; ; Article; Gmelin Handbuch der Anorganischen Chemie; vol. B: B-Verb.8; 5, page 73 - 90; (from Gmelin)",https://www.reaxys.com/reaxys/secured/hopinto.do?context=C&query=CNR.CNR%3D7721572&database=RX&origin=ReaxysOutput&ln=
,[H].[2H]O[B-](F)(F)F,16874454.0,https://www.reaxys.com/reaxys/secured/hopinto.do?context=S&query=IDE.XRN%3D16874454&database=RX&origin=ReaxysOutput&ln=,(1593 of 4000),,,D(1+)*F3BOD(1-)=D{F3B(OD)},BF3HO*H,87.8056,Coordination compound; Isotope or isotope containing compound,,ANORBBHTTLKITP-KXUUBAJSSA-N,,,,Identification(6); Physical Data(5),4.0,3.0,11 - 11.1,,,,,,"Article; Greenwood, N. N.; Journal of Inorganic and Nuclear Chemistry; vol. 5; (1958); p. 224 - 228;; ; Article; Gmelin Handbuch der Anorganischen Chemie; vol. B: B-Verb.8; 5, page 73 - 90; (from Gmelin)",https://www.reaxys.com/reaxys/secured/hopinto.do?context=C&query=CNR.CNR%3D7721572&database=RX&origin=ReaxysOutput&ln=
,CC#CB(F)F,2409165.0,https://www.reaxys.com/reaxys/secured/hopinto.do?context=S&query=IDE.XRN%3D2409165&database=RX&origin=ReaxysOutput&ln=,(1594 of 4000),33576-05-5,Propinyl-bor-difluorid; (propinyl)difluoroborane,CH3CCBF2,C3H3BF2,87.8646,acyclic,,JQICPTBXGPBKBM-UHFFFAOYSA-N,,,,Identification(5); Physical Data(12); Spectra(3),5.0,6.0,-61.3,,,,,,Article; Reed; Lovejoy; Journal of Chemical Physics; vol. 56; (1972); p. 183;,https://www.reaxys.com/reaxys/secured/hopinto.do?context=C&query=CNR.CNR%3D4391792&database=RX&origin=ReaxysOutput&ln=
,OB1OCCO1,1699153.0,https://www.reaxys.com/reaxys/secured/hopinto.do?context=S&query=IDE.XRN%3D1699153&database=RX&origin=ReaxysOutput&ln=,(1595 of 4000),25015-59-2,"Borsaeure-aethylenester; 2-Hydroxy-4,5-dihydro-1,3,2-dioxaborol; Aethylenhydrogenborat; Aethylenglykolboronat; [1,3,2]dioxaborolan-2-ol; boric acid monoethanediyl ester; Borsaeure-monoaethandiylester; Aethandiyl-hydrogenborat; HO-Beg",(CH2O)2BOH,C2H5BO3,87.8709,acyclic,,ZBEDLGKSWBORBS-UHFFFAOYSA-N,,,,Identification(8); Physical Data(5); Spectra(1),8.0,13.0,114 - 118,,,,,,"Article; Roy et al.; Journal of Inorganic and Nuclear Chemistry; vol. 4; (1957); p. 106,111;",https://www.reaxys.com/reaxys/secured/hopinto.do?context=C&query=CNR.CNR%3D1423950&database=RX&origin=ReaxysOutput&ln=
,CC(C)B(O)O,1731883.0,https://www.reaxys.com/reaxys/secured/hopinto.do?context=S&query=IDE.XRN%3D1731883&database=RX&origin=ReaxysOutput&ln=,(1596 of 4000),80041-89-0,isopropylboronic acid; i-propylboronic acid; (dihydroxy)isopropylborane,C3H7B(OH)2,C3H9BO2,87.9143,acyclic,,QIPHSSYCQCBJAX-UHFFFAOYSA-N,,,,Identification(48); Physical Data(2); Spectra(1); Bioactivity(7),291.0,134.0,160 - 162,,,,,,Article; McCusker et al.; Journal of the American Chemical Society; vol. 79; (1957); p. 5179;,https://www.reaxys.com/reaxys/secured/hopinto.do?context=C&query=CNR.CNR%3D1281993&database=RX&origin=ReaxysOutput&ln=
,CCCB(O)O,1731884.0,https://www.reaxys.com/reaxys/secured/hopinto.do?context=S&query=IDE.XRN%3D1731884&database=RX&origin=ReaxysOutput&ln=,(1597 of 4000),17745-45-8,propylboronic acid; n-propylboronic acid; Propylboronsaeure; 1-propylboronic acid; n-Propylborsaeure,C3H7B(OH)2,C3H9BO2,87.9143,acyclic,,JAQOMSTTXPGKTN-UHFFFAOYSA-N,,,,Identification(20); Physical Data(16); Spectra(4); Bioactivity(8),132.0,138.0,101.1,water monomer,,,,,"Article; Bloemendal, Victor R. L. J.; Sondag, Daan; Elferink, Hidde; Boltje, Thomas J.; van Hest, Jan. C. M.; Rutjes, Floris P. J. T.; European Journal of Organic Chemistry; vol. 2019; 12; (2019); p. 2289 - 2296;",https://www.reaxys.com/reaxys/secured/hopinto.do?context=C&query=CNR.CNR%3D76295624&database=RX&origin=ReaxysOutput&ln=
,CCB(F)CC,1731337.0,https://www.reaxys.com/reaxys/secured/hopinto.do?context=S&query=IDE.XRN%3D1731337&database=RX&origin=ReaxysOutput&ln=,(1598 of 4000),367-45-3,(diethyl)fluoroborane; Diethylborfluorid,(C2H5)2BF,C4H10BF,87.9328,acyclic,,GRYISIJQPOEWPF-UHFFFAOYSA-N,,,,Identification(8); Physical Data(22); Spectra(12),19.0,35.0,-121.5,,,,,,"Article; Bartocha et al.; Journal of Inorganic and Nuclear Chemistry; vol. 6; (1958); p. 119,122;",https://www.reaxys.com/reaxys/secured/hopinto.do?context=C&query=CNR.CNR%3D1282013&database=RX&origin=ReaxysOutput&ln=
,CSB(C)C,1731110.0,https://www.reaxys.com/reaxys/secured/hopinto.do?context=S&query=IDE.XRN%3D1731110&database=RX&origin=ReaxysOutput&ln=,(1600 of 4000),19163-05-4,methanesulfenyl-dimethyl-borane; Dimethyl(methylthio)boran; Methylmercapto-dimethyl-boran,(CH3)2BSCH3,C3H9BS,87.9815,acyclic,,IRBDKNYDCMQWNI-UHFFFAOYSA-N,,,,Identification(6); Physical Data(13); Spectra(20),16.0,35.0,-84,,,,,,"Article; Burg; Wagner; Journal of the American Chemical Society; vol. 76; (1954); p. 3307,3309;",https://www.reaxys.com/reaxys/secured/hopinto.do?context=C&query=CNR.CNR%3D1254756&database=RX&origin=ReaxysOutput&ln=
,FC(F)(F)F,1697288.0,https://www.reaxys.com/reaxys/secured/hopinto.do?context=S&query=IDE.XRN%3D1697288&database=RX&origin=ReaxysOutput&ln=,(1601 of 4000),75-73-0,carbon tetrafluoride; Tetrafluoromethane,CF4,CF4,88.0046,acyclic,,TXEYQDLBPFQVAA-UHFFFAOYSA-N,,,,Identification(3257); Physical Data(966); Spectra(137); Bioactivity(239),631.0,4758.0,,,,,,,Article; van Loef; Journal of Chemical Physics; vol. 61; (1974); p. 1605;,https://www.reaxys.com/reaxys/secured/hopinto.do?context=C&query=CNR.CNR%3D4362187&database=RX&origin=ReaxysOutput&ln=
,O=N(=O)N=N#N,11710990.0,https://www.reaxys.com/reaxys/secured/hopinto.do?context=S&query=IDE.XRN%3D11710990&database=RX&origin=ReaxysOutput&ln=,(1603 of 4000),,nitroazide; nitryl azide; diazo nitro amine,N4O2,N4O2,88.0256,,,DYMRYCZRMAHYKE-UHFFFAOYSA-N,,,,Identification(8); Physical Data(2); Spectra(3),2.0,7.0,190,,,,,,Patent; NORTHROP GRUMMAN CORPORATION; US5097029; (1992); A;,https://www.reaxys.com/reaxys/secured/hopinto.do?context=C&query=CNR.CNR%3D163892&database=RX&origin=ReaxysOutput&ln=
,[15NH2][15N]1C=[15N][15N]=C1,8761134.0,https://www.reaxys.com/reaxys/secured/hopinto.do?context=S&query=IDE.XRN%3D8761134&database=RX&origin=ReaxysOutput&ln=,(1604 of 4000),332029-12-6,"[15N4]-4-amino-1,2,4-triazole",C2H4(15)N4,C2H4N4,88.0538,heterocyclic,,FMCUPJKTGNBGEC-PQVJJBODSA-N,,,,Identification(5); Physical Data(1); Spectra(6),3.0,2.0,83.2,,,,,,"Article; Sanz, Dionisia; Perez-Torralba, Marta; Alarcon, Sergio Hugo; Claramunt, Rosa Maria; Foces-Foces, Concepcion; Elguero, Jose; Journal of Organic Chemistry; vol. 67; 5; (2002); p. 1462 - 1471;",https://www.reaxys.com/reaxys/secured/hopinto.do?context=C&query=CNR.CNR%3D6348557&database=RX&origin=ReaxysOutput&ln=
,N[14C](=N)N[14C]#N,1706309.0,https://www.reaxys.com/reaxys/secured/hopinto.do?context=S&query=IDE.XRN%3D1706309&database=RX&origin=ReaxysOutput&ln=,(1605 of 4000),3403-66-5,<14C>-dicyanodiamide; 14C-markiertes Dicyandiamid; Dicyandiamid-<14C>; Cyanoguanidin-14C; [14C]cyano-[14C]guanidine; [14C]Cyan-[14C]guanidin; [14C]Dicyandiamid,(14)C2H4N4,C2H4N4,88.0586,acyclic,,QGBSISYHAICWAH-XPULMUKRSA-N,,,,Identification(7); Physical Data(2),4.0,5.0,208.5 - 209,,,,,,"Article; Thomas; Journal of labelled compounds and radiopharmaceuticals; vol. 14; 6; (1978); p. 807 - 811,809,811;",https://www.reaxys.com/reaxys/secured/hopinto.do?context=C&query=CNR.CNR%3D2808301&database=RX&origin=ReaxysOutput&ln=
,[Na+].O[S-]=O,14753332.0,https://www.reaxys.com/reaxys/secured/hopinto.do?context=S&query=IDE.XRN%3D14753332&database=RX&origin=ReaxysOutput&ln=,(1606 of 4000),,sodium hydrogen sulfite; sodium sulphinate; sodium sulfinate,HO2S(1-)*Na(1+),HO2S*Na,88.0625,,,VKGONUJTKQQHHK-UHFFFAOYSA-N,,,,Identification(7); Physical Data(1),3.0,8.0,89 - 92,,,,,,Patent; AKZO NOBEL NV; US5185452; (1993); A;,https://www.reaxys.com/reaxys/secured/hopinto.do?context=C&query=CNR.CNR%3D188267&database=RX&origin=ReaxysOutput&ln=
,OC(=O)C1CO1,80505.0,https://www.reaxys.com/reaxys/secured/hopinto.do?context=S&query=IDE.XRN%3D80505&database=RX&origin=ReaxysOutput&ln=,(1607 of 4000),503-11-7,glycidic acid; oxirane-2-carboxylic acid; Glycidsaeure,C3H4O3,C3H4O3,88.063,heterocyclic,,OTGHWLKHGCENJV-UHFFFAOYSA-N,,,,Identification(44); Physical Data(5); Spectra(10); Bioactivity(4),50.0,79.0,36 - 38,benzene; hexane,,,,,Article; Payne; Van Ess; Journal of Organic Chemistry; vol. 26; (1961); p. 2984;,https://www.reaxys.com/reaxys/secured/hopinto.do?context=C&query=CNR.CNR%3D3892137&database=RX&origin=ReaxysOutput&ln=
,O=C1OCCO1,106249.0,https://www.reaxys.com/reaxys/secured/hopinto.do?context=S&query=IDE.XRN%3D106249&database=RX&origin=ReaxysOutput&ln=,(1608 of 4000),96-49-1,"[1,3]-dioxolan-2-one; ethylene carbonate",C2H4O2CO,C3H4O3,88.063,heterocyclic,,KMTRUDSVKNLOMY-UHFFFAOYSA-N,,,,Identification(5823); Physical Data(286); Spectra(140); Bioactivity(356),1318.0,7091.0,34 - 37,,,,,,"Article; Fukuyama, Takahide; Kasakado, Takayoshi; Nakagawa, Tomohiro; Ryu, Ilhyong; Taguchi, Shinji; Beilstein Journal of Organic Chemistry; vol. 18; (2022); p. 152 - 158;",https://www.reaxys.com/reaxys/secured/hopinto.do?context=C&query=CNR.CNR%3D115506854&database=RX&origin=ReaxysOutput&ln=