Structure: Image,SMILES,Substance Identification: Reaxys Registry Number,Links to Reaxys,Data Count,CAS Registry Number,Chemical Name,Linear Structure Formula,Molecular Formula,Molecular Weight,Type of Substance,Type and Modification,InChI Key,Composition: Comp. Name,Composition: Comp. Conc.,Composition: Comp. Attrib.,Field Availability,Number of Reactions,Number of References,Melting Point: Melting Point [C],Solvent (Melting Point),Location,Comment (Melting Point),Crystallizes With,Amount (Melting Point) [mol],References,Links to Reaxys.1
,Cl[H].COC,3904881.0,https://www.reaxys.com/reaxys/secured/hopinto.do?context=S&query=IDE.XRN%3D3904881&database=RX&origin=ReaxysOutput&ln=,(1112 of 4000),24521-77-5,dimethyl ether : hydrochloric acid complex; dimethyl ether-hydrogen chloride complex; dimethyl ether*ClH; hydrogen chloride*dimethyl ether; dimethyl ether ; hydrochloride; Dimethyl-aether; Hydrochlorid,HCl*(CH3)2O,C2H6O*ClH,82.53,acyclic,,DNMZJIGSDQVGSA-UHFFFAOYSA-N,,,,Identification(7); Physical Data(7); Spectra(8),3.0,16.0,-97.1,,,,,,"Article; Gmelin Handbuch der Anorganischen Chemie; vol. Cl: SVol.B1; 96, page 273 - 275;; ; Article; Baume, G.; Comptes Rendus Hebdomadaires des Seances de l'Academie des Sciences; vol. 148; (1909); p. 1322 - 1324;; ; Article; Baume, G.; Journal de Chimie Physique et de Physico-Chimie Biologique; vol. 12; (1914); p. 216 - 224;; ; Article; Baume, G.; Journal de Chimie Physique et de Physico-Chimie Biologique; vol. 9; (1911); p. 245 - 289; (from Gmelin)",https://www.reaxys.com/reaxys/secured/hopinto.do?context=C&query=CNR.CNR%3D7276822&database=RX&origin=ReaxysOutput&ln=
,Cl[H].CNN,3664286.0,https://www.reaxys.com/reaxys/secured/hopinto.do?context=S&query=IDE.XRN%3D3664286&database=RX&origin=ReaxysOutput&ln=,(1113 of 4000),7339-53-9; 55330-60-4; 88216-08-4,methyl hydrazine hydrochloride; N-methylhydrazine hydrochloride; monomethyl hydrazine hydrochloride,CH3NHNH2*HCl = NH2NH2CH3Cl,CH6N2*ClH,82.533,acyclic,,GIKDYMRZQQJQFB-UHFFFAOYSA-N,,,,Identification(20); Physical Data(2); Spectra(7); Bioactivity(5),126.0,87.0,122 - 124,ethanol,,,,,"Article; Ficken; Kendall; Journal of the Chemical Society; (1959); p. 3202,3212;",https://www.reaxys.com/reaxys/secured/hopinto.do?context=C&query=CNR.CNR%3D758953&database=RX&origin=ReaxysOutput&ln=
,CB(C)N=C=O,2346036.0,https://www.reaxys.com/reaxys/secured/hopinto.do?context=S&query=IDE.XRN%3D2346036&database=RX&origin=ReaxysOutput&ln=,(1116 of 4000),4426-16-8,Dimethylborisocyanat; (dimethyl)isocyanatoborane; dimethylboron isocyanate,(CH3)2BNCO,C3H6BNO,82.8977,acyclic,,LDOUSBXNDRKUQI-UHFFFAOYSA-N,,,,Identification(7); Physical Data(15); Spectra(12),7.0,13.0,-119 - -118,,,,,,"Article; Goubeau,J.; Graebner,H.; Chemische Berichte; vol. 93; (1960); p. 1379 - 1387;",https://www.reaxys.com/reaxys/secured/hopinto.do?context=C&query=CNR.CNR%3D36024&database=RX&origin=ReaxysOutput&ln=
,[H]B([H])N1CCCC1,102530.0,https://www.reaxys.com/reaxys/secured/hopinto.do?context=S&query=IDE.XRN%3D102530&database=RX&origin=ReaxysOutput&ln=,(1118 of 4000),22092-85-9,pyrrolidinoborane,H2BN(CH2)4,C4H10BN,82.9411,heterocyclic,,ZJOFCTAZGFQMDI-UHFFFAOYSA-N,,,,Identification(8); Physical Data(4); Spectra(4),12.0,13.0,33.8 - 34.2,,,,,,"Article; Burg; Good; Journal of Inorganic and Nuclear Chemistry; vol. 2; (1956); p. 237,240;",https://www.reaxys.com/reaxys/secured/hopinto.do?context=C&query=CNR.CNR%3D975953&database=RX&origin=ReaxysOutput&ln=
,CC1BNCC1,23701519.0,https://www.reaxys.com/reaxys/secured/hopinto.do?context=S&query=IDE.XRN%3D23701519&database=RX&origin=ReaxysOutput&ln=,(1119 of 4000),,"3-methyl-1,2-dihydro-1,2-azaborolidine",C4H10BN,C4H10BN,82.9411,,,IRCYDOGTAMGULB-UHFFFAOYSA-N,,,,Identification(7); Physical Data(8); Spectra(4),5.0,2.0,-18,pentane,supporting information,,,,"Erratum; Luo, Wei; Campbell, Patrick G.; Zakharov, Lev N.; Liu, Shih-Yuan; Journal of the American Chemical Society; vol. 135; 23; (2013); p. 8760 - 8760;",https://www.reaxys.com/reaxys/secured/hopinto.do?context=C&query=CNR.CNR%3D35500726&database=RX&origin=ReaxysOutput&ln=
,[H][N+]([H])([H])[H].[H]P([H])([O-])=O,15935083.0,https://www.reaxys.com/reaxys/secured/hopinto.do?context=S&query=IDE.XRN%3D15935083&database=RX&origin=ReaxysOutput&ln=,(1120 of 4000),7803-65-8,ammonium phosphinate; ammonium hypophosphite,NH4(1+)*H2PO2(1-)=NH4(H2PO2),H2O2P*H4N,83.0269,Isotope or isotope containing compound,,AQQVTZBWWYVEGR-UHFFFAOYSA-N,,,,Identification(6); Physical Data(21); Spectra(2),23.0,31.0,200,,,,,,"Article; Wurtz, A.; Annales de Chimie et de Physique; vol. 16; (1846); p. 193;; ; Article; Gmelin Handbuch der Anorganischen Chemie; vol. NH4: MVol.2; 8.3, page 416 - 418; (from Gmelin)",https://www.reaxys.com/reaxys/secured/hopinto.do?context=C&query=CNR.CNR%3D7370356&database=RX&origin=ReaxysOutput&ln=
,[Li+].[H]O[H].[S-]C#N,3722055.0,https://www.reaxys.com/reaxys/secured/hopinto.do?context=S&query=IDE.XRN%3D3722055&database=RX&origin=ReaxysOutput&ln=,(1121 of 4000),97034-09-8,lithium thiocyanate monohydrate; thiocyanic acid ; lithium thiocyanate; Thiocyansaeure; Lithiumrhodanid,Li(1+)*SCN(1-)*H2O=LiSCN*H2O,CNS*H2O*Li,83.04,acyclic,,UNTVNJAFDYEXLD-UHFFFAOYSA-M,,,,Identification(6); Physical Data(9),,3.0,60.5,,,,,,"Article; Nikolajew; Zhurnal Russkago Fiziko-Khimicheskago Obshchestva; vol. 61; (1929); p. 939,945;",https://www.reaxys.com/reaxys/secured/hopinto.do?context=C&query=CNR.CNR%3D1473932&database=RX&origin=ReaxysOutput&ln=
,O=C1N=CN=N1,8391540.0,https://www.reaxys.com/reaxys/secured/hopinto.do?context=S&query=IDE.XRN%3D8391540&database=RX&origin=ReaxysOutput&ln=,(1122 of 4000),,"1,2,4-triazole-5-one; 3H-1,2,4-triazol-3-one",C2HN3O,C2HN3O,83.0494,heterocyclic,,MDTUWBLTRPRXBX-UHFFFAOYSA-N,,,,Identification(73); Physical Data(3); Spectra(1); Bioactivity(5),8.0,75.0,236,,,,,,"Article; Yoshino, Satoru; Miyake, Atsumi; Journal of Thermal Analysis and Calorimetry; vol. 100; 1; (2010); p. 247 - 251;",https://www.reaxys.com/reaxys/secured/hopinto.do?context=C&query=CNR.CNR%3D8891853&database=RX&origin=ReaxysOutput&ln=
,O=C1C=NN=N1,14085248.0,https://www.reaxys.com/reaxys/secured/hopinto.do?context=S&query=IDE.XRN%3D14085248&database=RX&origin=ReaxysOutput&ln=,(1123 of 4000),,triazolone,C2HN3O,C2HN3O,83.0494,,,FFSJPOPLSWBGQY-UHFFFAOYSA-N,,,,Identification(164); Physical Data(2); Spectra(4); Bioactivity(10),6.0,172.0,223 - 225,,,,,,Patent; NAEJA PHARMACEUTICAL; US6153616; (2000); A;; ; Patent; OTSUKA HOLDINGS CO LTD; EP889881; (2003); B1;,https://www.reaxys.com/reaxys/secured/hopinto.do?context=C&query=CNR.CNR%3D150848&database=RX&origin=ReaxysOutput&ln=
,C[Al](C)C#N,3695048.0,https://www.reaxys.com/reaxys/secured/hopinto.do?context=S&query=IDE.XRN%3D3695048&database=RX&origin=ReaxysOutput&ln=,(1124 of 4000),5838-54-0,Dimethylaluminiumcyanid,(CH3)2Al(CN),C3H6AlN,83.0689,acyclic,,OZQKIUFSEGROHA-UHFFFAOYSA-N,,,,Identification(21); Physical Data(11); Spectra(1),6.0,18.0,85 - 86,,,,,,"Patent; SHIONOGI &amp; CO., LTD.; FR1469481; (1964); A; Chem.Abstr.; vol. 68; 96052w; (1968); Chem.Abstr.; vol. 68; 96052w; (1968);; ; Patent; SHIONOGI &amp; CO., LTD.; US3444161; (1965); A; Chem.Abstr.; vol. 71; 39296s; (1969); Chem.Abstr.; vol. 71; 39296s; (1969);; ; Article; Nagata; Yoshioka; Tetrahedron Letters; (1966); p. 1913,1916;",https://www.reaxys.com/reaxys/secured/hopinto.do?context=C&query=CNR.CNR%3D3612325&database=RX&origin=ReaxysOutput&ln=
,[2H]C1=CC([2H])=C([2H])C([2H])=C1[2H],1926513.0,https://www.reaxys.com/reaxys/secured/hopinto.do?context=S&query=IDE.XRN%3D1926513&database=RX&origin=ReaxysOutput&ln=,(1125 of 4000),13657-09-5,benzene-d5,C6D5H,C6H6,83.0739,isocyclic; Isotope or isotope containing compound,,UHOVQNZJYSORNB-RALIUCGRSA-N,,,,Identification(13); Physical Data(10); Spectra(31),22.0,61.0,6.2,,,,,,"Article; Best; Wilson; Journal of the Chemical Society; (1946); p. 239,243;",https://www.reaxys.com/reaxys/secured/hopinto.do?context=C&query=CNR.CNR%3D1696205&database=RX&origin=ReaxysOutput&ln=
,N#CCC1CO1,104316.0,https://www.reaxys.com/reaxys/secured/hopinto.do?context=S&query=IDE.XRN%3D104316&database=RX&origin=ReaxysOutput&ln=,(1126 of 4000),624-58-8,"3,4-epoxybutanenitrile; 2-oxyranylacetonitrile; (+/-)-2-oxiran-2-ylethanenitrile; 2-oxiranylacetonitrile; allyl cyanide oxide; oxiran-2-ylacetonitrile; oxiranyl-acetonitrile; 2-Cyanomethyl-oxiran; oxiraneacetonitrile; Epicyanhydrin; allyl cyanide epoxide",C4H5NO,C4H5NO,83.0898,heterocyclic,,PITLRSDLRTWZGP-UHFFFAOYSA-N,,,,Identification(14); Physical Data(8); Spectra(7),15.0,19.0,169,ethanol,,,,,"Article; Berlinowa; Panaiotow; Nauchni trudove na Visshiia meditsinski institut, Sofiia; vol. 6; (1973); p. 647,649;",https://www.reaxys.com/reaxys/secured/hopinto.do?context=C&query=CNR.CNR%3D3368723&database=RX&origin=ReaxysOutput&ln=
,O=C1CC=CN1,104569.0,https://www.reaxys.com/reaxys/secured/hopinto.do?context=S&query=IDE.XRN%3D104569&database=RX&origin=ReaxysOutput&ln=,(1127 of 4000),27406-82-2,Δ4-Pyrrolin-2-on; 4-Pyrrolin-2-on,C4H5NO,C4H5NO,83.0898,heterocyclic,,VIESAWGOYVNHLV-UHFFFAOYSA-N,,,,Identification(34); Physical Data(3); Spectra(10),7.0,31.0,215 - 218,,,,,,"Article; Ranganathan, S.; Ranganathan, D.; Ramachandran, P. V.; Mahanty, M. K.; Bamezai, S.; Tetrahedron; vol. 37; 24; (1981); p. 4171 - 4184;",https://www.reaxys.com/reaxys/secured/hopinto.do?context=C&query=CNR.CNR%3D5603395&database=RX&origin=ReaxysOutput&ln=
,O=C1NCC=C1,105225.0,https://www.reaxys.com/reaxys/secured/hopinto.do?context=S&query=IDE.XRN%3D105225&database=RX&origin=ReaxysOutput&ln=,(1128 of 4000),4031-15-6,"3-pyrrolin-2-one; Δ3-Pyrrolin-2-on; 1,5-Dihydro-2H-pyrrol-2-on; Δ3-pyrrolin-2-one; 1H-pyrrol-2(5H)-one; 1,5-dihydro-2H-pyrrol-2-one; 3-Pyrrolin-2-on",C4H5NO,C4H5NO,83.0898,heterocyclic,,CDCHBOQVXIGZHA-UHFFFAOYSA-N,,,,Identification(64); Physical Data(18); Spectra(29),35.0,81.0,23 - 27,,,,,,"Article; Baker; Sifniades; Journal of Organic Chemistry; vol. 44; (1979); p. 2798,2799;",https://www.reaxys.com/reaxys/secured/hopinto.do?context=C&query=CNR.CNR%3D3455322&database=RX&origin=ReaxysOutput&ln=
,O=C=NC1CC1,969701.0,https://www.reaxys.com/reaxys/secured/hopinto.do?context=S&query=IDE.XRN%3D969701&database=RX&origin=ReaxysOutput&ln=,(1129 of 4000),4747-72-2,isocyanatocyclopropane; cyclopropyl isocyanate,C4H5NO,C4H5NO,83.0898,isocyclic,,DBBRJAWSDTYYBM-UHFFFAOYSA-N,,,,Identification(19); Physical Data(8); Spectra(12); Bioactivity(7),144.0,115.0,87,,,,,,Patent; PFIZER INC; DE2149326; (1972); A1; Chem.Abstr.; vol. 77; 34603; Chem.Abstr.; vol. 77; 34603;,https://www.reaxys.com/reaxys/secured/hopinto.do?context=C&query=CNR.CNR%3D2897739&database=RX&origin=ReaxysOutput&ln=
,O=C1CCC=N1,1446142.0,https://www.reaxys.com/reaxys/secured/hopinto.do?context=S&query=IDE.XRN%3D1446142&database=RX&origin=ReaxysOutput&ln=,(1130 of 4000),55047-80-8,"1,2-dehydropyrrolidin-2-one; Δ1-Pyrrolin-5-on; 3,4-dihydro-pyrrol-2-one",C4H5NO,C4H5NO,83.0898,heterocyclic,,OKDGPOCKHMGDQY-UHFFFAOYSA-N,,,,Identification(8); Physical Data(1); Spectra(2),4.0,3.0,155 - 157,,,,,,Article; Matoba; Yamazaki; Chemical and Pharmaceutical Bulletin; vol. 22; 12; (1974); p. 2999 - 3001;,https://www.reaxys.com/reaxys/secured/hopinto.do?context=C&query=CNR.CNR%3D3455431&database=RX&origin=ReaxysOutput&ln=
,O=C1CNC=C1,1523881.0,https://www.reaxys.com/reaxys/secured/hopinto.do?context=S&query=IDE.XRN%3D1523881&database=RX&origin=ReaxysOutput&ln=,(1131 of 4000),5860-48-0,1-Methyl-4-oxo-2-pyrrolin; pyrrolinone; azolinone; oxopyrroline,C4H5NO,C4H5NO,83.0898,heterocyclic,,HMXQIFUGFZEJEO-UHFFFAOYSA-N,,,,Identification(52); Physical Data(1); Spectra(6),4.0,50.0,173 - 176,,,,,,Patent; BASF SE; US6010567; (2000); A;,https://www.reaxys.com/reaxys/secured/hopinto.do?context=C&query=CNR.CNR%3D141862&database=RX&origin=ReaxysOutput&ln=
,CC#CC=NO,1699179.0,https://www.reaxys.com/reaxys/secured/hopinto.do?context=S&query=IDE.XRN%3D1699179&database=RX&origin=ReaxysOutput&ln=,(1132 of 4000),313048-10-1,but-2-ynal oxime; Tetrolaldehyd-oxim; But-2-inal-oxim,C4H5NO,C4H5NO,83.0898,acyclic,,MNCPTFFIWNEOCF-UHFFFAOYSA-N,,,,Identification(5); Physical Data(4),8.0,2.0,103,,,,,,Article; Claisen; Chemische Berichte; vol. 44; (1911); p. 1166;,https://www.reaxys.com/reaxys/secured/hopinto.do?context=C&query=CNR.CNR%3D1306032&database=RX&origin=ReaxysOutput&ln=
,CC(=C)N=C=O,1737782.0,https://www.reaxys.com/reaxys/secured/hopinto.do?context=S&query=IDE.XRN%3D1737782&database=RX&origin=ReaxysOutput&ln=,(1133 of 4000),4747-87-9,isopropenyl isocyanate; Isopropenylisocyanat,C4H5NO,C4H5NO,83.0898,acyclic,,UKQJZQQPMIFNHE-UHFFFAOYSA-N,,,,Identification(13); Physical Data(13); Spectra(3),29.0,24.0,62 - 64,,,,,,"Article; Silina, E. B.; Kozhushko, B. N.; Shokol, V. A.; Journal of general chemistry of the USSR; vol. 59; 31; (1989); p. 505 - 517; Zhurnal Obshchei Khimii; vol. 59; 3; (1989); p. 571 - 586;",https://www.reaxys.com/reaxys/secured/hopinto.do?context=C&query=CNR.CNR%3D5508605&database=RX&origin=ReaxysOutput&ln=
,CC#CC(N)=O,1740204.0,https://www.reaxys.com/reaxys/secured/hopinto.do?context=S&query=IDE.XRN%3D1740204&database=RX&origin=ReaxysOutput&ln=,(1134 of 4000),6052-32-0,but-2-ynamide,C4H5NO,C4H5NO,83.0898,acyclic,,STSBIYSZXHSXHH-UHFFFAOYSA-N,,,,Identification(32); Physical Data(9); Spectra(16),21.0,38.0,151 - 152.5,,Page/Page column 47,,,,Patent; THE UNIVERSITY OF TEXAS SYSTEM; UNIVERSITY OF ILLINOIS (SYSTEM); WO2013/56073; (2013); A1;,https://www.reaxys.com/reaxys/secured/hopinto.do?context=C&query=CNR.CNR%3D35476317&database=RX&origin=ReaxysOutput&ln=
,CNC(=O)C#C,1901875.0,https://www.reaxys.com/reaxys/secured/hopinto.do?context=S&query=IDE.XRN%3D1901875&database=RX&origin=ReaxysOutput&ln=,(1135 of 4000),2682-32-8,N-methyl-2-propynamide; N-methylpropiolamide; N-methylprop-2-ynamide,CH3NHCOC2H,C4H5NO,83.0898,acyclic,,WBVNBTCOCIGBDL-UHFFFAOYSA-N,,,,Identification(22); Physical Data(8); Spectra(9),37.0,38.0,88,,,,,,"Article; Hay, Lynne A.; Koenig, Thomas M.; Ginah, Francis O.; Copp, James D.; Mitchell, David; Journal of Organic Chemistry; vol. 63; 15; (1998); p. 5050 - 5058;",https://www.reaxys.com/reaxys/secured/hopinto.do?context=C&query=CNR.CNR%3D6099600&database=RX&origin=ReaxysOutput&ln=
,N1OC=CC=C1,13191300.0,https://www.reaxys.com/reaxys/secured/hopinto.do?context=S&query=IDE.XRN%3D13191300&database=RX&origin=ReaxysOutput&ln=,(1136 of 4000),289-82-7,"oxazine; 2H-1,2-oxazine",C4H5NO,C4H5NO,83.0898,,,BCHZICNRHXRCHY-UHFFFAOYSA-N,,,,Identification(605); Physical Data(2); Spectra(2),16.0,605.0,124 - 125,,,,,,Patent; RECKITT BENCKISER GROUP PLC; US4159377; (1979); A;,https://www.reaxys.com/reaxys/secured/hopinto.do?context=C&query=CNR.CNR%3D29882&database=RX&origin=ReaxysOutput&ln=
,CN1C=NN=C1,1607.0,https://www.reaxys.com/reaxys/secured/hopinto.do?context=S&query=IDE.XRN%3D1607&database=RX&origin=ReaxysOutput&ln=,(1137 of 4000),10570-40-8,"4-methyl-4H-[1,2,4]triazole; 4-methyl-1,2,4-triazole; 4-Methyl-1,2,4-triazol; 1-Methyl-1,3,4-triazole",CH3C2H2N3,C3H5N3,83.0928,heterocyclic,,XILPCSMEKCBYFO-UHFFFAOYSA-N,,,,Identification(57); Physical Data(15); Spectra(49),37.0,82.0,90 - 92,,,,,,"Article; Papadopoulos,E.P.; Schupbach,C.M.; Journal of Organic Chemistry; vol. 44; (1979); p. 99 - 104;",https://www.reaxys.com/reaxys/secured/hopinto.do?context=C&query=CNR.CNR%3D194470&database=RX&origin=ReaxysOutput&ln=
,NC1=NNC=C1,1618.0,https://www.reaxys.com/reaxys/secured/hopinto.do?context=S&query=IDE.XRN%3D1618&database=RX&origin=ReaxysOutput&ln=,(1138 of 4000),1820-80-0,3-aminopyrazole; 3-amino-1H-pyrazole,C3N3H5,C3H5N3,83.0928,heterocyclic,,JVVRJMXHNUAPHW-UHFFFAOYSA-N,,,,Identification(232); Physical Data(18); Spectra(32); Bioactivity(38),1197.0,719.0,36 - 40,,,,,,Article; Ege; Arnold; Synthesis; (1976); p. 52;; ; Patent; BASF SE; CH599162; (1974); A5; Chem.Abstr.; vol. 83; 179101; Chem.Abstr.; vol. 83; 179101;,https://www.reaxys.com/reaxys/secured/hopinto.do?context=C&query=CNR.CNR%3D2890939&database=RX&origin=ReaxysOutput&ln=
,NC1=CNN=C1,1619.0,https://www.reaxys.com/reaxys/secured/hopinto.do?context=S&query=IDE.XRN%3D1619&database=RX&origin=ReaxysOutput&ln=,(1139 of 4000),28466-26-4,4-aminopyrazole; 1H-pyrazol-4-amine; 4-amino-1H-pyrazole; 1H-pyrazole-4-amine; 1H-pyrazol-4-ylamine,C3H3N2(NH2),C3H5N3,83.0928,heterocyclic,,AXINVSXSGNSVLV-UHFFFAOYSA-N,,,,Identification(74); Physical Data(19); Spectra(25); Bioactivity(1),165.0,156.0,72 - 75,,supporting information,,,,"Article; Maccallini, Cristina; Di Matteo, Mauro; Vullo, Daniela; Ammazzalorso, Alessandra; Carradori, Simone; De Filippis, Barbara; Fantacuzzi, Marialuigia; Giampietro, Letizia; Pandolfi, Assunta; Supuran, Claudiu T.; Amoroso, Rosa; ChemMedChem; (2016); p. 1695 - 1699;",https://www.reaxys.com/reaxys/secured/hopinto.do?context=C&query=CNR.CNR%3D69539323&database=RX&origin=ReaxysOutput&ln=
,CN1N=CC=N1,106243.0,https://www.reaxys.com/reaxys/secured/hopinto.do?context=S&query=IDE.XRN%3D106243&database=RX&origin=ReaxysOutput&ln=,(1140 of 4000),18922-69-5,"1-methyl-1,2,5-triazole; 2-methyl-1,2,3-triazole; 2-Methyl-1,2,3-triazol; 2-Methyl-<1,2,3>triazol",C3H5N3,C3H5N3,83.0928,heterocyclic,,NGCXHCGUQHIOLZ-UHFFFAOYSA-N,,,,Identification(49); Physical Data(12); Spectra(37),9.0,52.0,22,,,,,,Article; Elguero et al.; Bulletin de la Societe Chimique de France; (1967); p. 2998;,https://www.reaxys.com/reaxys/secured/hopinto.do?context=C&query=CNR.CNR%3D2812457&database=RX&origin=ReaxysOutput&ln=
,CN1C=CN=N1,106244.0,https://www.reaxys.com/reaxys/secured/hopinto.do?context=S&query=IDE.XRN%3D106244&database=RX&origin=ReaxysOutput&ln=,(1141 of 4000),16681-65-5,"1-methyl-1,2,3-triazole; 1-methyl-1H-1,2,3-triazole",C3H5N3,C3H5N3,83.0928,heterocyclic,,JWAWEQBUZOGIBZ-UHFFFAOYSA-N,,,,Identification(106); Physical Data(20); Spectra(49),101.0,167.0,15 - 16,,,,,,"Article; Wolff; Justus Liebigs Annalen der Chemie; vol. 394; (1912); p. 85; Justus Liebigs Annalen der Chemie; vol. 399; (1913); p. 288,291;",https://www.reaxys.com/reaxys/secured/hopinto.do?context=C&query=CNR.CNR%3D810876&database=RX&origin=ReaxysOutput&ln=
,CN1C=NC=N1,106245.0,https://www.reaxys.com/reaxys/secured/hopinto.do?context=S&query=IDE.XRN%3D106245&database=RX&origin=ReaxysOutput&ln=,(1142 of 4000),6086-21-1,"1-methyl-1H-1,2,4-triazole; 1-methyl-1,2,4-triazole",C2H2N3(CH3),C3H5N3,83.0928,heterocyclic,,MWZDIEIXRBWPLG-UHFFFAOYSA-N,,,,Identification(152); Physical Data(38); Spectra(89); Bioactivity(16),179.0,294.0,20,,,,,,"Article; Pellizzari; Soldi; Gazzetta Chimica Italiana; vol. 35 I; (1905); p. 375;; ; Article; Grundmann; Raetz; Journal of Organic Chemistry; vol. 21; (1956); p. 1037;; ; Article; Grundmann; Angewandte Chemie; vol. 75; (1963); p. 393,401;",https://www.reaxys.com/reaxys/secured/hopinto.do?context=C&query=CNR.CNR%3D805217&database=RX&origin=ReaxysOutput&ln=
,CC1=NNC=N1,106286.0,https://www.reaxys.com/reaxys/secured/hopinto.do?context=S&query=IDE.XRN%3D106286&database=RX&origin=ReaxysOutput&ln=,(1143 of 4000),7170-01-6,"3-methyl-1H-[1,2,4]triazole; 3-Methyl-1,2,4-triazol; 3-methyl-1,2,4-triazole; 3-Methyl-1,2,4-triazolyl",C3H5N3,C3H5N3,83.0928,heterocyclic,,PZKFSRWSQOQYNR-UHFFFAOYSA-N,,,,Identification(106); Physical Data(27); Spectra(19); Bioactivity(14),155.0,232.0,90,,,,,,"Article; El Ashry; Awad; Nucleosides, nucleotides and nucleic acids; vol. 20; 1-2; (2001); p. 103 - 116;",https://www.reaxys.com/reaxys/secured/hopinto.do?context=C&query=CNR.CNR%3D6277758&database=RX&origin=ReaxysOutput&ln=
,CC1=CNN=N1,106292.0,https://www.reaxys.com/reaxys/secured/hopinto.do?context=S&query=IDE.XRN%3D106292&database=RX&origin=ReaxysOutput&ln=,(1144 of 4000),27808-16-8,"4-methyl-1H-1,2,3-triazole; 4-methyl-1,2,3-triazole; 4-Methyl-1,2,3-triazol",C3H5N3,C3H5N3,83.0928,heterocyclic,,GVSNQMFKEPBIOY-UHFFFAOYSA-N,,,,Identification(45); Physical Data(11); Spectra(8),37.0,64.0,23,,,,,,"Article; Begtrup; Journal of the Chemical Society. Perkin transactions II; (1976); p. 736,737;",https://www.reaxys.com/reaxys/secured/hopinto.do?context=C&query=CNR.CNR%3D4394070&database=RX&origin=ReaxysOutput&ln=