Structure: Image,SMILES,Substance Identification: Reaxys Registry Number,Links to Reaxys,Data Count,CAS Registry Number,Chemical Name,Linear Structure Formula,Molecular Formula,Molecular Weight,Type of Substance,Type and Modification,InChI Key,Composition: Comp. Name,Composition: Comp. Conc.,Composition: Comp. Attrib.,Field Availability,Number of Reactions,Number of References,Melting Point: Melting Point [C],Solvent (Melting Point),Location,Comment (Melting Point),Crystallizes With,Amount (Melting Point) [mol],References,Links to Reaxys.1
,NC1=CC=NN1,605752.0,https://www.reaxys.com/reaxys/secured/hopinto.do?context=S&query=IDE.XRN%3D605752&database=RX&origin=ReaxysOutput&ln=,(1145 of 4000),1225387-53-0,3(5)-aminopyrazole; 3-aminopyrazole,C3H5N3,C3H5N3,83.0928,heterocyclic,,JVVRJMXHNUAPHW-UHFFFAOYSA-N,,,,Identification(214); Physical Data(8); Spectra(5),583.0,445.0,36,,,,,,Article; Ege; Arnold; Angewandte Chemie; vol. 86; (1974); p. 237;; ; Patent; BASF SE; CH599162; (1974); A5; Chem.Abstr.; vol. 83; 179101; Chem.Abstr.; vol. 83; 179101;,https://www.reaxys.com/reaxys/secured/hopinto.do?context=C&query=CNR.CNR%3D2622217&database=RX&origin=ReaxysOutput&ln=
,CC1=NN=CN1,741965.0,https://www.reaxys.com/reaxys/secured/hopinto.do?context=S&query=IDE.XRN%3D741965&database=RX&origin=ReaxysOutput&ln=,(1146 of 4000),7170-01-6,"3-methyl-4H-1,2,4-triazole; 3-methyl-1,2,4-triazole",C3H5N3,C3H5N3,83.0928,heterocyclic,,PZKFSRWSQOQYNR-UHFFFAOYSA-N,,,,Identification(37); Physical Data(5); Spectra(4); Bioactivity(3),11.0,37.0,84 - 86,ethanol,supporting information,,,,"Article; Xia, Ran; Sun, Li-Ping; Qu, Gui-Rong; Phosphorus, Sulfur and Silicon and the Related Elements; vol. 192; 1; (2017); p. 88 - 91;",https://www.reaxys.com/reaxys/secured/hopinto.do?context=C&query=CNR.CNR%3D70281314&database=RX&origin=ReaxysOutput&ln=
,CC1=NNN=C1,1560728.0,https://www.reaxys.com/reaxys/secured/hopinto.do?context=S&query=IDE.XRN%3D1560728&database=RX&origin=ReaxysOutput&ln=,(1147 of 4000),19230-71-8,"4-methyl-2H-1,2,3-triazole",C3H5N3,C3H5N3,83.0928,heterocyclic,,GVSNQMFKEPBIOY-UHFFFAOYSA-N,,,,Identification(26); Physical Data(1),12.0,28.0,36,,,,,,"Article; Birkofer,L.; Wegner,P.; Chemische Berichte; vol. 100; 11; (1967); p. 3485 - 3494;",https://www.reaxys.com/reaxys/secured/hopinto.do?context=C&query=CNR.CNR%3D39378&database=RX&origin=ReaxysOutput&ln=
,CC(N)=NC#N,1901510.0,https://www.reaxys.com/reaxys/secured/hopinto.do?context=S&query=IDE.XRN%3D1901510&database=RX&origin=ReaxysOutput&ln=,(1148 of 4000),56563-07-6,N-Cyan-acetimidin,C3H5N3,C3H5N3,83.0928,acyclic,,KKZFHAKALPLYLL-UHFFFAOYSA-N,,,,Identification(9); Physical Data(3),16.0,9.0,135 - 137,,,,,,"Article; Eloy,F.; Deryckere,A.; Bulletin des Societes Chimiques Belges; vol. 78; (1969); p. 41 - 46;",https://www.reaxys.com/reaxys/secured/hopinto.do?context=C&query=CNR.CNR%3D302155&database=RX&origin=ReaxysOutput&ln=
,NNC=CC#N,2071161.0,https://www.reaxys.com/reaxys/secured/hopinto.do?context=S&query=IDE.XRN%3D2071161&database=RX&origin=ReaxysOutput&ln=,(1149 of 4000),33064-41-4,β-Cyanovinylhydrazin,C3H5N3,C3H5N3,83.0928,acyclic,,GHFCGKBKJWRMAU-UHFFFAOYSA-N,,,,Identification(7); Physical Data(1),1.0,2.0,235,,,,,,"Article; Sasaki,T.; Kanematsu,K.; Journal of the Chemical Society C: Organic; (1971); p. 2147 - 2150;",https://www.reaxys.com/reaxys/secured/hopinto.do?context=C&query=CNR.CNR%3D199249&database=RX&origin=ReaxysOutput&ln=
,NN1C=CC=N1,3587718.0,https://www.reaxys.com/reaxys/secured/hopinto.do?context=S&query=IDE.XRN%3D3587718&database=RX&origin=ReaxysOutput&ln=,(1150 of 4000),3994-46-5,N-aminopyrazole; 1-aminopyrazole; amino-pyrazole; 1H-pyrazol-1-amine,C3H5N3,C3H5N3,83.0928,heterocyclic,,NYIGEYYREVRXES-UHFFFAOYSA-N,,,,Identification(137); Physical Data(19); Spectra(42),40.0,169.0,-1.5,,,Details: new mp after resolidification at:-0.76 C. Method: distilled sample,,,"Article; Jimenez, Jose Antonio; Claramunt, Rosa Maria; Mo, Otilia; Yanez, Manuel; Wehrmann, Frank; Buntkowsky, Gerd; Limbach, Hans-Heinrich; Goddard, Richard; Elguero, Jose; Physical Chemistry Chemical Physics; vol. 1; 22; (1999); p. 5113 - 5120;",https://www.reaxys.com/reaxys/secured/hopinto.do?context=C&query=CNR.CNR%3D6205468&database=RX&origin=ReaxysOutput&ln=
,C1CC=CCN1,103392.0,https://www.reaxys.com/reaxys/secured/hopinto.do?context=S&query=IDE.XRN%3D103392&database=RX&origin=ReaxysOutput&ln=,(1151 of 4000),694-05-3,"1,2,3,6-tetrahydropyridine; 1,2,5,6-tetrahydropyridine",C5H8NH,C5H9N,83.1332,heterocyclic,,FTAHXMZRJCZXDL-UHFFFAOYSA-N,,,,Identification(124); Physical Data(22); Spectra(13); Bioactivity(1),927.0,365.0,192 - 193,ethanol; diethyl ether,,,,,Article; Morlacchi et al.; Annali di Chimica; vol. 57; (1967); p. 1456;,https://www.reaxys.com/reaxys/secured/hopinto.do?context=C&query=CNR.CNR%3D2503629&database=RX&origin=ReaxysOutput&ln=
,C1CCN=CC1,103492.0,https://www.reaxys.com/reaxys/secured/hopinto.do?context=S&query=IDE.XRN%3D103492&database=RX&origin=ReaxysOutput&ln=,(1152 of 4000),505-18-0,"2,3,4,5-tetrahydropyridine; 3,4,5,6-tetrahydropyridine; Δ1-piperideine; 1-piperideine",C5H9N,C5H9N,83.1332,heterocyclic,,DWKUKQRKVCMOLP-UHFFFAOYSA-N,,,,Identification(122); Physical Data(10); Spectra(34); Bioactivity(12),388.0,214.0,59 - 61.5,,supporting information,,,,"Article; Orejarena Pacheco, Julio Cesar; Lipp, Alexander; Nauth, Alexander M.; Acke, Fabian; Dietz, Jule-Philipp; Opatz, Till; Chemistry - A European Journal; vol. 22; 15; (2016); p. 5409 - 5415;",https://www.reaxys.com/reaxys/secured/hopinto.do?context=C&query=CNR.CNR%3D68606486&database=RX&origin=ReaxysOutput&ln=
,CCN1CC1=C,104533.0,https://www.reaxys.com/reaxys/secured/hopinto.do?context=S&query=IDE.XRN%3D104533&database=RX&origin=ReaxysOutput&ln=,(1153 of 4000),872-39-9,1-Ethyl-2-methylen-aziridin; Ethyl-allenimin; 1-ethyl-2-methylen-aziridine; 1-Aethyl-2-methylen-aziridin,C5H9N,C5H9N,83.1332,heterocyclic,,UZMGEBBPHWTIPS-UHFFFAOYSA-N,,,,Identification(12); Physical Data(6); Spectra(3),5.0,12.0,77.2 - 77.5,,,,,,Article; Pollard; Parcell; Journal of the American Chemical Society; vol. 73; (1951); p. 2925;,https://www.reaxys.com/reaxys/secured/hopinto.do?context=C&query=CNR.CNR%3D983308&database=RX&origin=ReaxysOutput&ln=
,CC(C)(N)C#C,605350.0,https://www.reaxys.com/reaxys/secured/hopinto.do?context=S&query=IDE.XRN%3D605350&database=RX&origin=ReaxysOutput&ln=,(1154 of 4000),2978-58-7,"1,1-dimethylprop-3-ynylamine; 1,1-Dimethylpropargylamine",HC2C(NH2)(CH3)2,C5H9N,83.1332,acyclic,,VUGCBIWQHSRQBZ-UHFFFAOYSA-N,,,,Identification(79); Physical Data(16); Spectra(6); Bioactivity(19),1251.0,370.0,20,,,,,,"Article; Engel,P.S.; Bishop,D.J.; Journal of the American Chemical Society; vol. 97; (1975); p. 6754 - 6762;",https://www.reaxys.com/reaxys/secured/hopinto.do?context=C&query=CNR.CNR%3D70115&database=RX&origin=ReaxysOutput&ln=
,CC(C)(C)C#N,1361449.0,https://www.reaxys.com/reaxys/secured/hopinto.do?context=S&query=IDE.XRN%3D1361449&database=RX&origin=ReaxysOutput&ln=,(1155 of 4000),630-18-2,"pivaloyl nitrile; 2,2-dimethylpropionitrile; trimethylacetonitrile; pivalonitrile; tert-butyl isocyanide",C(CH3)3CN,C5H9N,83.1332,acyclic,,JAMNHZBIQDNHMM-UHFFFAOYSA-N,,,,Identification(281); Physical Data(139); Spectra(131); Bioactivity(69),2115.0,1377.0,17,,,,,,"Article; LeFevre; Journal of the Chemical Society; (1965); p. 2499,2500,2502,2503;",https://www.reaxys.com/reaxys/secured/hopinto.do?context=C&query=CNR.CNR%3D4263190&database=RX&origin=ReaxysOutput&ln=
,C1CNC=CC1,1560244.0,https://www.reaxys.com/reaxys/secured/hopinto.do?context=S&query=IDE.XRN%3D1560244&database=RX&origin=ReaxysOutput&ln=,(1156 of 4000),37497-65-7,"2-piperideine; 1,2,3,4-tetrahydropyridine; Tetrahydropyridin; 1,4,5,6-tetrahydropyridine; tetra-hydropyridine",C5H9N,C5H9N,83.1332,heterocyclic,,VSWICNJIUPRZIK-UHFFFAOYSA-N,,,,Identification(112); Physical Data(5); Spectra(7),25.0,129.0,123,,,,,,Patent; GLAXOSMITHKLINE PLC; US5314901; (1994); A;,https://www.reaxys.com/reaxys/secured/hopinto.do?context=C&query=CNR.CNR%3D69335&database=RX&origin=ReaxysOutput&ln=
,CC(C)CC#N,1734239.0,https://www.reaxys.com/reaxys/secured/hopinto.do?context=S&query=IDE.XRN%3D1734239&database=RX&origin=ReaxysOutput&ln=,(1157 of 4000),625-28-5,Isovaleronitrile,(CH3)2CHCH2CN,C5H9N,83.1332,acyclic,,QHDRKFYEGYYIIK-UHFFFAOYSA-N,,,,Identification(192); Physical Data(78); Spectra(47); Bioactivity(29),902.0,511.0,-100.85,,,,,,Article; Timmermans; Delcourt; Journal de Chimie Physique et de Physico-Chimie Biologique; vol. 31; (1934); p. 110;,https://www.reaxys.com/reaxys/secured/hopinto.do?context=C&query=CNR.CNR%3D1133431&database=RX&origin=ReaxysOutput&ln=
,CCCCC#N,1736706.0,https://www.reaxys.com/reaxys/secured/hopinto.do?context=S&query=IDE.XRN%3D1736706&database=RX&origin=ReaxysOutput&ln=,(1158 of 4000),110-59-8,Valeronitrile; pentanonitrile,NCC4H9,C5H9N,83.1332,acyclic,,RFFFKMOABOFIDF-UHFFFAOYSA-N,,,,Identification(521); Physical Data(245); Spectra(81); Bioactivity(64),1191.0,1245.0,-96.2,,,,,,Article; Witschonke; Analytical Chemistry; vol. 26; (1954); p. 562;,https://www.reaxys.com/reaxys/secured/hopinto.do?context=C&query=CNR.CNR%3D609866&database=RX&origin=ReaxysOutput&ln=
,CCNCC#C,1736713.0,https://www.reaxys.com/reaxys/secured/hopinto.do?context=S&query=IDE.XRN%3D1736713&database=RX&origin=ReaxysOutput&ln=,(1159 of 4000),6943-44-8,N-(ethyl)propargylamine; N-ethyl-N-propargylamine,C5H9N,C5H9N,83.1332,acyclic,,QLWUUDMYTAATJZ-UHFFFAOYSA-N,,,,Identification(20); Physical Data(10); Spectra(6),30.0,28.0,120,CH2Cl2; hexane,,,,,"Article; Masse, Guy; Sturtz, Georges; Synthesis; 11; (1988); p. 907 - 910;",https://www.reaxys.com/reaxys/secured/hopinto.do?context=C&query=CNR.CNR%3D5640532&database=RX&origin=ReaxysOutput&ln=
,NC1CCC=C1,2072086.0,https://www.reaxys.com/reaxys/secured/hopinto.do?context=S&query=IDE.XRN%3D2072086&database=RX&origin=ReaxysOutput&ln=,(1161 of 4000),3350-06-9,2-cyclopentenamine; 3-Amino-cyclopenten; 3-aminocyclopentene,C5H9N,C5H9N,83.1332,isocyclic,,VSYCRDXNSAXDIU-UHFFFAOYSA-N,,,,Identification(23); Physical Data(15); Spectra(7),112.0,27.0,199 - 201,benzene,,,,,Article; Fanta et al.; Journal of Heterocyclic Chemistry; vol. 5; (1968); p. 419;,https://www.reaxys.com/reaxys/secured/hopinto.do?context=C&query=CNR.CNR%3D3559627&database=RX&origin=ReaxysOutput&ln=
,CC=NC1CC1,4951553.0,https://www.reaxys.com/reaxys/secured/hopinto.do?context=S&query=IDE.XRN%3D4951553&database=RX&origin=ReaxysOutput&ln=,(1162 of 4000),92667-50-0,N-Ethylidencyclopropylamin,C5H9N,C5H9N,83.1332,isocyclic,,LFFVJQCIBUZGEI-UHFFFAOYSA-N,,,,Identification(6); Physical Data(2); Spectra(1),3.0,2.0,84,,,,,,"Article; Mueller, Eduard; Kettler, Regina; Wiessler, Manfred; Liebigs Annalen der Chemie; 8; (1984); p. 1468 - 1493;",https://www.reaxys.com/reaxys/secured/hopinto.do?context=C&query=CNR.CNR%3D5625238&database=RX&origin=ReaxysOutput&ln=
,CO[Be]C(C)C,3690170.0,https://www.reaxys.com/reaxys/secured/hopinto.do?context=S&query=IDE.XRN%3D3690170&database=RX&origin=ReaxysOutput&ln=,(1163 of 4000),17382-01-3,Isopropylberyllium-methoxid; isopropylberyllium(1+); methylate; Isopropylberyllium(1+); Methylat,C4H10BeO,C4H10BeO,83.135,acyclic,,YAMFQJRQOTXCLC-UHFFFAOYSA-N,,,,Identification(11); Physical Data(2),1.0,2.0,133,,,,,,"Article; Coates; Glockling; Journal of the Chemical Society; (1954); p. 22,24,26;",https://www.reaxys.com/reaxys/secured/hopinto.do?context=C&query=CNR.CNR%3D1282289&database=RX&origin=ReaxysOutput&ln=
,[K+].CC[NH-],3677558.0,https://www.reaxys.com/reaxys/secured/hopinto.do?context=S&query=IDE.XRN%3D3677558&database=RX&origin=ReaxysOutput&ln=,(1164 of 4000),42497-23-4,ethylamine; potassium ethylamide; Aethylamin; Kaliumaethylamid,C2H6N(1-)*K(1+),C2H6N*K,83.1746,acyclic,,NBRBEIWJQOMRHD-UHFFFAOYSA-N,,,,Identification(6); Physical Data(2),,2.0,200 - 300,,,,,,Article; Titherley; Journal of the Chemical Society; vol. 71; (1897); p. 465;,https://www.reaxys.com/reaxys/secured/hopinto.do?context=C&query=CNR.CNR%3D1881100&database=RX&origin=ReaxysOutput&ln=
,Cl[H].CNO,3541409.0,https://www.reaxys.com/reaxys/secured/hopinto.do?context=S&query=IDE.XRN%3D3541409&database=RX&origin=ReaxysOutput&ln=,(1165 of 4000),4229-44-1,N-methylhydroxyamine hydrochloride; N-methyl-hydroxylamine hydrochloride; methylhydroxylamine hydrochloride; N-methylhydroxylammonium chloride; N-hydroxymethanamine hydrochloride; N-methylhydroxylamine; N-hydroxymethylamine hydrochloride,(CH3)NH2OH(1+)*Cl(1-)=(CH3)NHOH*HCl,CH6NO*Cl,83.5177,acyclic,,RGZRSLKIOCHTSI-UHFFFAOYSA-N,,,,Identification(134); Physical Data(13); Spectra(5); Bioactivity(60),2651.0,1140.0,87.2,isopropanol,Page/Page column 11,,,,Patent; Angus Chemical (in: Golden Gate Capital and Ardian); ARDIAN HOLDING SAS; GOLDEN GATE CAPITAL INC; WO2015/80936; (2015); A1;,https://www.reaxys.com/reaxys/secured/hopinto.do?context=C&query=CNR.CNR%3D66337163&database=RX&origin=ReaxysOutput&ln=
,Cl[H].CON,3589723.0,https://www.reaxys.com/reaxys/secured/hopinto.do?context=S&query=IDE.XRN%3D3589723&database=RX&origin=ReaxysOutput&ln=,(1166 of 4000),593-56-6,N-methoxylamine hydrochloride; methoxylamine hydrochloride; O-methylhydroxylamine hydrochloride; methoxyamine hydrochloride; methoxyammonium chloride; O-methylhydroxylammonium chloride; O-methylhydroxyamine hydrochloride; methylhydroxylamine hydrochloride; O-methoxylamine hydrochloride; N-methoxyamine hydrochloride; methoxamine hydrochloride; hydroxylamine methyl ether hydrochloride; O-methoxyhydroxylamine hydrochloride; O-methoxyamine hydrochloride; methoxyamino hydrochloride; methoxylammonium chloride; hydroxylamine O-methyl ether hydrochloride; methoxyhydroxylamine hydrochloride; (aminooxy)methane hydrochloride; N-methoxyammonium chloride; O-methylhydroxylamine,H3NOCH3(1+)*Cl(1-)=[H3NOCH3]Cl,CH6NO*Cl,83.5177,acyclic,,XNXVOSBNFZWHBV-UHFFFAOYSA-N,,,,Identification(1426); Physical Data(15); Spectra(4); Bioactivity(259),7362.0,4767.0,151.2 - 152.1,,Paragraph 0039,,,,Patent; HERD CHEMICALS; CN111747863; (2020); A;,https://www.reaxys.com/reaxys/secured/hopinto.do?context=C&query=CNR.CNR%3D81203352&database=RX&origin=ReaxysOutput&ln=
,[H]B([H])N(C)N(C)B([H])[H],1733690.0,https://www.reaxys.com/reaxys/secured/hopinto.do?context=S&query=IDE.XRN%3D1733690&database=RX&origin=ReaxysOutput&ln=,(1167 of 4000),50679-19-1,"(Dimethylhydrazo)diboran; N,N'-diboranyl-N,N'-dimethyl-hydrazine; N,N'-Diboryl-N,N'-dimethyl-hydrazin",H2BNCH3NCH3BH2,C2H10B2N2,83.7368,acyclic,,ZULYSHHRCGGMRS-UHFFFAOYSA-N,,,,Identification(7); Physical Data(8); Spectra(2),4.0,7.0,0.4,,,,,,Article; Steindler; Schlesinger; Journal of the American Chemical Society; vol. 75; (1953); p. 756;,https://www.reaxys.com/reaxys/secured/hopinto.do?context=C&query=CNR.CNR%3D1275371&database=RX&origin=ReaxysOutput&ln=
,[H+].O[B-](O)(F)F,16483131.0,https://www.reaxys.com/reaxys/secured/hopinto.do?context=S&query=IDE.XRN%3D16483131&database=RX&origin=ReaxysOutput&ln=,(1170 of 4000),,dihydroxodifluoroboric acid; Dihydroxodifluoroborsaeure,BF2H2O2(1-)*H(1+),BF2H2O2*H,83.8304,Coordination compound,,VMXBVJRJJRJTKQ-UHFFFAOYSA-O,,,,Identification(5); Physical Data(36); Spectra(2),45.0,26.0,4 - 4.5,,,,,,"Article; Sowa, F. J.; Kroeger, J. W.; Nieuwland, J. A.; Journal of the American Chemical Society; vol. 57; (1935); p. 454 - 456;; ; Article; Sowa, F. J.; Kroeger, J. W.; Nieuwland, J. A.; Journal of the American Chemical Society; vol. 59; (1937); p. 965 - 969;; ; Article; Gmelin Handbuch der Anorganischen Chemie; vol. B: SVol.1; 4.4.5, page 187 - 196;; ; Article; Gmelin Handbuch der Anorganischen Chemie; vol. B: B-Verb.8; 5, page 73 - 90; (from Gmelin)",https://www.reaxys.com/reaxys/secured/hopinto.do?context=C&query=CNR.CNR%3D7263586&database=RX&origin=ReaxysOutput&ln=
,OB(O)C=C=C,2345840.0,https://www.reaxys.com/reaxys/secured/hopinto.do?context=S&query=IDE.XRN%3D2345840&database=RX&origin=ReaxysOutput&ln=,(1171 of 4000),83816-41-5,allenylboronic acid,CH2CCHB(OH)2,C3H5BO2,83.8825,acyclic,,UWYKUBJFERKTAF-UHFFFAOYSA-N,,,,Identification(18); Physical Data(4); Spectra(3),63.0,29.0,150,,,with decomposition,,,"Article; Haruta, Ryuichi; Ishiguro, Masaharu; Ikeda, Nobuo; Yamamoto, Hisashi; Journal of the American Chemical Society; vol. 104; 26; (1982); p. 7667 - 7669;; ; Article; Ikeda, Nobuo; Arai, Isao; Yamamoto, Hisashi; Journal of the American Chemical Society; vol. 108; 3; (1986); p. 483 - 486; (from Gmelin)",https://www.reaxys.com/reaxys/secured/hopinto.do?context=C&query=CNR.CNR%3D5692058&database=RX&origin=ReaxysOutput&ln=
,FB(C=C)C=C,2408729.0,https://www.reaxys.com/reaxys/secured/hopinto.do?context=S&query=IDE.XRN%3D2408729&database=RX&origin=ReaxysOutput&ln=,(1172 of 4000),1537-50-4,Divinylborfluorid,FB(CHCH2)2,C4H6BF,83.901,acyclic,,HOIGAJXXOVBOIN-UHFFFAOYSA-N,,,,Identification(5); Physical Data(11); Spectra(11),7.0,15.0,-164 - -157,,,,,,"Article; Brinckman,F.E.; Stone,F.G.A.; Journal of the American Chemical Society; vol. 82; (1960); p. 6218 - 6223;",https://www.reaxys.com/reaxys/secured/hopinto.do?context=C&query=CNR.CNR%3D50047&database=RX&origin=ReaxysOutput&ln=
,CB1NCCN1,1103.0,https://www.reaxys.com/reaxys/secured/hopinto.do?context=S&query=IDE.XRN%3D1103&database=RX&origin=ReaxysOutput&ln=,(1173 of 4000),13069-98-2,"2-Methyl-1,3,2-diazaboracyclopentan; B-Methyl-1-bora-2,5-diaza-cyclopentan; 2-methyl-1,3,2-diazaboracyclopentane; 2-methyl-[1,3,2]diazaborolidine; 2-Methyl-[1,3,2]diazaborolidin",(CH2)2(NH)2BCH3,C3H9BN2,83.9289,heterocyclic,,WBJGIWVJYKBQSH-UHFFFAOYSA-N,,,,Identification(5); Physical Data(23); Spectra(3),7.0,16.0,43.5,,,,,,"Article; Goubeau, J.; Zappel, A.; Zeitschrift fur Anorganische und Allgemeine Chemie; Zeitschrift fuer Anorganische und Allgemeine Chemie; vol. 279; (1955); p. 38 - 58;; ; Article; Gmelin Handbuch der Anorganischen Chemie; vol. B: B-Verb.1; 2.5.1.3, page 122 - 126;; ; Article; Niedenzu, K.; Miller, C. D.; Fortschritte der Chemischen Forschung; vol. 15; (1970); p. 191 - 205; (from Gmelin)",https://www.reaxys.com/reaxys/secured/hopinto.do?context=C&query=CNR.CNR%3D7319579&database=RX&origin=ReaxysOutput&ln=
,CNC.[H]B([H])C#N,4145165.0,https://www.reaxys.com/reaxys/secured/hopinto.do?context=S&query=IDE.XRN%3D4145165&database=RX&origin=ReaxysOutput&ln=,(1174 of 4000),,,C2H7N*CH2BN,CH2BN*C2H7N,83.9289,acyclic,,BLBCUYOEARDDDH-UHFFFAOYSA-N,,,,Identification(6); Physical Data(1); Spectra(1),1.0,2.0,46 - 48,,,,,,Article; Kelly et al.; Inorganic Chemistry; vol. 13; (1974); p. 1763;,https://www.reaxys.com/reaxys/secured/hopinto.do?context=C&query=CNR.CNR%3D3693240&database=RX&origin=ReaxysOutput&ln=
,CP(F)F,1731054.0,https://www.reaxys.com/reaxys/secured/hopinto.do?context=S&query=IDE.XRN%3D1731054&database=RX&origin=ReaxysOutput&ln=,(1175 of 4000),753-59-3,methylphosphonous acid difluoride; Methyldifluorphosphin,CH3F2P,CH3F2P,84.0054,acyclic,,AMJMBJIZKKMZIE-UHFFFAOYSA-N,,,,Identification(15); Physical Data(17); Spectra(13),23.0,27.0,-112,,,,,,"Note; Foester; Cohn, Kim; Inorganic Chemistry; vol. 9; 6; (1970); p. 1571 - 1572;",https://www.reaxys.com/reaxys/secured/hopinto.do?context=C&query=CNR.CNR%3D4483705&database=RX&origin=ReaxysOutput&ln=
,[Na+].OC([O-])=O,4153970.0,https://www.reaxys.com/reaxys/secured/hopinto.do?context=S&query=IDE.XRN%3D4153970&database=RX&origin=ReaxysOutput&ln=,(1176 of 4000),144-55-8,sodium hydrogencarbonate; NaHCO3; Sodium bicarbonate; aqueous NaHCO3; aqueous sodium bicarbonate; sodium hydrocarbonate; aqueous sodium hydrogencarbonate; Sodium hydrogenocarbonate; baking soda,HCO3Na,CHNaO3,84.0069,acyclic,,UIIMBOGNXHQVGW-UHFFFAOYSA-M,,,,Identification(2596); Physical Data(336); Spectra(50); Bioactivity(503),6307.0,7730.0,71 - 74,,,,,,Patent; OTSUKA HOLDINGS CO LTD; US5145865; (1992); A;,https://www.reaxys.com/reaxys/secured/hopinto.do?context=C&query=CNR.CNR%3D167261&database=RX&origin=ReaxysOutput&ln=