Structure: Image,SMILES,Substance Identification: Reaxys Registry Number,Links to Reaxys,Data Count,CAS Registry Number,Chemical Name,Linear Structure Formula,Molecular Formula,Molecular Weight,Type of Substance,Type and Modification,InChI Key,Composition: Comp. Name,Composition: Comp. Conc.,Composition: Comp. Attrib.,Field Availability,Number of Reactions,Number of References,Melting Point: Melting Point [C],Solvent (Melting Point),Location,Comment (Melting Point),Crystallizes With,Amount (Melting Point) [mol],References,Links to Reaxys.1
,CC1=CCC=C1,2036331.0,https://www.reaxys.com/reaxys/secured/hopinto.do?context=S&query=IDE.XRN%3D2036331&database=RX&origin=ReaxysOutput&ln=,(1013 of 4000),3727-31-9,"2-methyl-1,3-cyclopentadiene; 2-methylcyclopenta-1,3-diene; 3-methylcyclopentadiene",C5H5(CH3),C6H8,80.1295,isocyclic,,AHQZRFBZJSCKAV-UHFFFAOYSA-N,,,,Identification(32); Physical Data(6); Spectra(18),107.0,87.0,122 - 125,,,,,,Article; McLean et al.; Journal of the American Chemical Society; vol. 94; (1972); p. 1380;,https://www.reaxys.com/reaxys/secured/hopinto.do?context=C&query=CNR.CNR%3D5151853&database=RX&origin=ReaxysOutput&ln=
,CC1(C=C)C=C1,2232055.0,https://www.reaxys.com/reaxys/secured/hopinto.do?context=S&query=IDE.XRN%3D2232055&database=RX&origin=ReaxysOutput&ln=,(1014 of 4000),71153-30-5,3-vinyl-3-methylcyclopropene; 3-methyl-3-vinylcyclopropene,C3H2(CH3)CHCH2,C6H8,80.1295,isocyclic,,AZGBUFPIKVKSCD-UHFFFAOYSA-N,,,,Identification(7); Physical Data(11); Spectra(9),13.0,13.0,54,,,,,,"Article; Gritsenko, E. I.; Khaliullin, R. R.; Plemenkov, V. V.; Faizullin, E. M.; Journal of general chemistry of the USSR; vol. 58; 12; (1988); p. 2433 - 2436; Zhurnal Obshchei Khimii; vol. 58; 12; (1988); p. 2733 - 2737;",https://www.reaxys.com/reaxys/secured/hopinto.do?context=C&query=CNR.CNR%3D5882811&database=RX&origin=ReaxysOutput&ln=
,[K+].[NH-]C#N,5350157.0,https://www.reaxys.com/reaxys/secured/hopinto.do?context=S&query=IDE.XRN%3D5350157&database=RX&origin=ReaxysOutput&ln=,(1015 of 4000),1239708-10-1,Potassium cyanamide; potassium hydrogen cyanamide,K(1+)*CHN2(1-),CHN2*K,80.1306,acyclic,,FXKSOWVXKXQPLQ-UHFFFAOYSA-N,,,,Identification(7); Physical Data(13); Spectra(3),11.0,4.0,113,,,,,,"Article; Schnick, W.; Huppertz, H.; Zeitschrift fur Anorganische und Allgemeine Chemie; Zeitschrift fuer Anorganische und Allgemeine Chemie; vol. 621; (1995); p. 1703 - 1707; (from Gmelin)",https://www.reaxys.com/reaxys/secured/hopinto.do?context=C&query=CNR.CNR%3D8261205&database=RX&origin=ReaxysOutput&ln=
,[H]S[H].COC,3663475.0,https://www.reaxys.com/reaxys/secured/hopinto.do?context=S&query=IDE.XRN%3D3663475&database=RX&origin=ReaxysOutput&ln=,(1016 of 4000),,dimethyl ether ; compound with hydrogen sulfide; Dimethyl-aether; Verbindung mit Schwefelwasserstoff,(CH3)2O*H2S,C2H6O*H2S,80.1509,acyclic,,CAKVZYADEKHXCZ-UHFFFAOYSA-N,,,,Identification(5); Physical Data(2),,4.0,-148.6,,,,,,"Article; Baume, G.; Perrot, F. L.; Comptes Rendus Hebdomadaires des Seances de l'Academie des Sciences; vol. 152; (1911); p. 1763 - 1765;; ; Article; Baume, G.; Perrot, F. L.; Journal de Chimie Physique et de Physico-Chimie Biologique; vol. 12; (1914); p. 225 - 241;; ; Article; Gmelin Handbuch der Anorganischen Chemie; vol. S: MVol.B1; 51, page 111 - 113; (from Gmelin)",https://www.reaxys.com/reaxys/secured/hopinto.do?context=C&query=CNR.CNR%3D7398608&database=RX&origin=ReaxysOutput&ln=
,OC(Cl)=O,1900718.0,https://www.reaxys.com/reaxys/secured/hopinto.do?context=S&query=IDE.XRN%3D1900718&database=RX&origin=ReaxysOutput&ln=,(1017 of 4000),463-73-0,carboxy chlorine; Chlorameisensaeure; chloro-carboxylic acid,OCClOH,CHClO2,80.4707,acyclic,,AOGYCOYQMAVAFD-UHFFFAOYSA-N,,,,Identification(50); Physical Data(4),83.0,74.0,186 - 187,,,,,,"Patent; SHIONOGI &amp; CO., LTD.; GIAPPONE; US4254119; (1981); A;",https://www.reaxys.com/reaxys/secured/hopinto.do?context=C&query=CNR.CNR%3D46019&database=RX&origin=ReaxysOutput&ln=
,FC(Cl)=C,1733322.0,https://www.reaxys.com/reaxys/secured/hopinto.do?context=S&query=IDE.XRN%3D1733322&database=RX&origin=ReaxysOutput&ln=,(1018 of 4000),2317-91-1,1-chloro-1-fluoroethane,CH2CFCl,C2H2ClF,80.4893,acyclic,,FPBWSPZHCJXUBL-UHFFFAOYSA-N,,,,Identification(84); Physical Data(17); Spectra(21),58.0,132.0,-169,,,,,,Article; Henne; Ruh; Journal of the American Chemical Society; vol. 70; (1948); p. 1025;,https://www.reaxys.com/reaxys/secured/hopinto.do?context=C&query=CNR.CNR%3D1330928&database=RX&origin=ReaxysOutput&ln=
,B1NBNBN1,2715473.0,https://www.reaxys.com/reaxys/secured/hopinto.do?context=S&query=IDE.XRN%3D2715473&database=RX&origin=ReaxysOutput&ln=,(1019 of 4000),6569-51-3,borazine,H3B3N3H3,B3H6N3,80.5007,Coordination compound,,BGECDVWSWDRFSP-UHFFFAOYSA-N,,,,Identification(917); Physical Data(128); Spectra(71),231.0,1238.0,-58,,Page/Page column 3,,,,Patent; OREGON HEALTH &amp; SCIENCE UNIVERSITY; US2011/21818; (2011); A1;,https://www.reaxys.com/reaxys/secured/hopinto.do?context=C&query=CNR.CNR%3D8973248&database=RX&origin=ReaxysOutput&ln=
,COCCl,505943.0,https://www.reaxys.com/reaxys/secured/hopinto.do?context=S&query=IDE.XRN%3D505943&database=RX&origin=ReaxysOutput&ln=,(1020 of 4000),107-30-2,chloromethyl methyl ether; monochlorodimethyl ether,ClCH2OCH3,C2H5ClO,80.5141,acyclic,,XJUZRXYOEPSWMB-UHFFFAOYSA-N,,,,Identification(575); Physical Data(103); Spectra(44); Bioactivity(545),12621.0,10828.0,-103.5,,,,,,Article; Timmermans; Chemisches Zentralblatt; vol. 85; I; (1914); p. 618;,https://www.reaxys.com/reaxys/secured/hopinto.do?context=C&query=CNR.CNR%3D62977878&database=RX&origin=ReaxysOutput&ln=
,OCCCl,878139.0,https://www.reaxys.com/reaxys/secured/hopinto.do?context=S&query=IDE.XRN%3D878139&database=RX&origin=ReaxysOutput&ln=,(1021 of 4000),107-07-3,2-chloro-ethanol; 2-chloroethan-1-ol,ClH2CCH2OH,C2H5ClO,80.5141,acyclic,,SZIFAVKTNFCBPC-UHFFFAOYSA-N,,,,Identification(703); Physical Data(440); Spectra(104); Bioactivity(269),4534.0,4878.0,-67.5,,,,,,Article; Timmermans; Mattaar; Bulletin des Societes Chimiques Belges; vol. 30; (1921); p. 214; Chemisches Zentralblatt; vol. 92; III; (1921); p. 1266;; ; Article; Timmermans; Bulletin des Societes Chimiques Belges; vol. 36; (1927); p. 507; Chemisches Zentralblatt; vol. 99; I; (1928); p. 27;; ; Article; Timmermans; Martin; Journal de Chimie Physique et de Physico-Chimie Biologique; vol. 25; (1928); p. 447;,https://www.reaxys.com/reaxys/secured/hopinto.do?context=C&query=CNR.CNR%3D559456&database=RX&origin=ReaxysOutput&ln=
,Cl[H].NC=N,3666426.0,https://www.reaxys.com/reaxys/secured/hopinto.do?context=S&query=IDE.XRN%3D3666426&database=RX&origin=ReaxysOutput&ln=,(1022 of 4000),6313-33-3,formamidine hydrochloride; formimidamide hydrochloride; formamidinium chloride; methanimidamide hydrochloride,HC(NH2)2(1+)*Cl(1-)=[HC(NH2)2]Cl,CH4N2*ClH,80.5171,acyclic,,NMVVJCLUYUWBSZ-UHFFFAOYSA-N,,,,Identification(111); Physical Data(6); Spectra(8),391.0,405.0,81 - 82,,,,,,"Article; Gromov, S. P.; Yashunskii, D. V.; Sagitullin, R. S.; Bundel', Yu. G.; Doklady Chemistry; vol. 292; (1987); p. 12 - 15; Dokl. Akad. Nauk SSSR Ser. Khim.; vol. 292; 2; (1987); p. 364 - 369;",https://www.reaxys.com/reaxys/secured/hopinto.do?context=C&query=CNR.CNR%3D5868499&database=RX&origin=ReaxysOutput&ln=
,C[SiH2]Cl,1730803.0,https://www.reaxys.com/reaxys/secured/hopinto.do?context=S&query=IDE.XRN%3D1730803&database=RX&origin=ReaxysOutput&ln=,(1023 of 4000),993-00-0,chloro-methyl-silane,CH3Si(H)2Cl,CH5ClSi,80.5892,acyclic,,YGZSVWMBUCGDCV-UHFFFAOYSA-N,,,,Identification(98); Physical Data(39); Spectra(33),98.0,146.0,-135,,,,,,"Article; Ebsworth; Emeleus; Journal of the Chemical Society; (1958); p. 2150,2155;",https://www.reaxys.com/reaxys/secured/hopinto.do?context=C&query=CNR.CNR%3D1278771&database=RX&origin=ReaxysOutput&ln=
,[SiH3]CCl,1811605.0,https://www.reaxys.com/reaxys/secured/hopinto.do?context=S&query=IDE.XRN%3D1811605&database=RX&origin=ReaxysOutput&ln=,(1024 of 4000),10112-09-1,chloromethylsilane,ClCH2SiH3,CH5ClSi,80.5892,acyclic,,AZFVLHQDIIJLJG-UHFFFAOYSA-N,,,,Identification(47); Physical Data(21); Spectra(27),22.0,74.0,-89.6,,,,,,"Article; Bellama; MacDiarmid; Journal of Organometallic Chemistry; vol. 18; (1969); p. 275,277;",https://www.reaxys.com/reaxys/secured/hopinto.do?context=C&query=CNR.CNR%3D4213384&database=RX&origin=ReaxysOutput&ln=
,FON(=O)=O,16514951.0,https://www.reaxys.com/reaxys/secured/hopinto.do?context=S&query=IDE.XRN%3D16514951&database=RX&origin=ReaxysOutput&ln=,(1029 of 4000),7789-26-6,fluorine nitrate,FONO2,FNO3,81.0033,,,VHFBTKQOIBRGQP-UHFFFAOYSA-N,,,,Identification(5); Physical Data(44); Spectra(6); Bioactivity(4),18.0,43.0,-181,,,,,,"Article; Hill, D. G.; Bigelow, L. A.; Journal of the American Chemical Society; vol. 59; (1937); p. 2127 - 2128;; ; Article; Gmelin Handbuch der Anorganischen Chemie; vol. F: SVol.1; 76, page 256 - 258; (from Gmelin)",https://www.reaxys.com/reaxys/secured/hopinto.do?context=C&query=CNR.CNR%3D7226516&database=RX&origin=ReaxysOutput&ln=
,O.ON(=O)=O,14865902.0,https://www.reaxys.com/reaxys/secured/hopinto.do?context=S&query=IDE.XRN%3D14865902&database=RX&origin=ReaxysOutput&ln=,(1030 of 4000),13444-82-1,nitric acid monohydrate; oxonium nitrate dihydrate; nitric acid hydrate,H2O*HNO3,HNO3*H2O,81.0281,Coordination compound,,FGHSTPNOXKDLKU-UHFFFAOYSA-N,,,,Identification(328); Physical Data(20); Spectra(17),6.0,361.0,-38,,,,,,"Article; Biltz, W.; Huelsmann, O.; Eickholz, W.; Nachrichten von der Gesellschaft der Wissenschaften zu Goettingen, Mathematisch-Physikalische Klasse; vol. 1 {2}; (1935); p. 98 - 101;; ; Article; Kuester, F. W.; Kremann, R.; Zeitschrift fur anorganische Chemie; vol. 41; (1904); p. 21 - 23;; ; Article; Gmelin Handbuch der Anorganischen Chemie; vol. N: MVol.4; 7.2, page 962 - 971; (from Gmelin)",https://www.reaxys.com/reaxys/secured/hopinto.do?context=C&query=CNR.CNR%3D7201656&database=RX&origin=ReaxysOutput&ln=
,CCN(F)F,2231183.0,https://www.reaxys.com/reaxys/secured/hopinto.do?context=S&query=IDE.XRN%3D2231183&database=RX&origin=ReaxysOutput&ln=,(1031 of 4000),758-18-9,"Ethyl-difluor-amin; N,N-Difluor-ethylamin; Difluoraminoethan",C2H5F2N,C2H5F2N,81.0652,acyclic,,IAUJKTVVMRFADH-UHFFFAOYSA-N,,,,Identification(9); Physical Data(10); Spectra(8),10.0,17.0,-150.3,,,,,,"Article; Frazer; Journal of Inorganic and Nuclear Chemistry; vol. 16; (1960); p. 63,65;; ; Patent; U.S. Atomic Energy Commission; US3166595; (1961); A; Chem.Abstr.; vol. 62; 9009c; (1965); Chem.Abstr.; vol. 62; 9009c; (1965);",https://www.reaxys.com/reaxys/secured/hopinto.do?context=C&query=CNR.CNR%3D3751020&database=RX&origin=ReaxysOutput&ln=
,C1=NC=NC=N1,104790.0,https://www.reaxys.com/reaxys/secured/hopinto.do?context=S&query=IDE.XRN%3D104790&database=RX&origin=ReaxysOutput&ln=,(1032 of 4000),290-87-9,"1,3,5-Triazine; s-triazine; triazine",(HCN)3,C3H3N3,81.0769,heterocyclic,,JIHQDMXYYFUGFV-UHFFFAOYSA-N,,,,Identification(1989); Physical Data(132); Spectra(124); Bioactivity(141),754.0,2412.0,80,,Paragraph 0149,,,,Patent; LOYOLA UNIV NEW ORLEANS; WO2018/183749; (2018); A1;,https://www.reaxys.com/reaxys/secured/hopinto.do?context=C&query=CNR.CNR%3D75209922&database=RX&origin=ReaxysOutput&ln=
,C1=CN=NN=C1,741943.0,https://www.reaxys.com/reaxys/secured/hopinto.do?context=S&query=IDE.XRN%3D741943&database=RX&origin=ReaxysOutput&ln=,(1033 of 4000),289-96-3,"1,2,3-triazine; 1,2,3-Triazin",C3H3N3,C3H3N3,81.0769,heterocyclic,,JYEUMXHLPRZUAT-UHFFFAOYSA-N,,,,Identification(108); Physical Data(19); Spectra(37),116.0,123.0,66,diethyl ether,supporting information,,,,"Article; Anderson, Erin D.; Boger, Dale L.; Organic Letters; vol. 13; 9; (2011); p. 2492 - 2494;; ; Article; Anderson, Erin D.; Boger, Dale L.; Journal of the American Chemical Society; vol. 133; 31; (2011); p. 12285 - 12292;",https://www.reaxys.com/reaxys/secured/hopinto.do?context=C&query=CNR.CNR%3D9051785&database=RX&origin=ReaxysOutput&ln=
,C1=CN=NC=N1,741944.0,https://www.reaxys.com/reaxys/secured/hopinto.do?context=S&query=IDE.XRN%3D741944&database=RX&origin=ReaxysOutput&ln=,(1034 of 4000),290-38-0,"1,2,4-triazine; 6-azapyrimidine",HCNNNCHCH,C3H3N3,81.0769,heterocyclic,,FYADHXFMURLYQI-UHFFFAOYSA-N,,,,Identification(390); Physical Data(10); Spectra(18),38.0,415.0,16 - 17,diethyl ether,,,,,Article; Neunhoeffer; Hennig; Chemische Berichte; vol. 101; 11; (1968); p. 3952;,https://www.reaxys.com/reaxys/secured/hopinto.do?context=C&query=CNR.CNR%3D3555249&database=RX&origin=ReaxysOutput&ln=
,CN(C#N)C#N,1740165.0,https://www.reaxys.com/reaxys/secured/hopinto.do?context=S&query=IDE.XRN%3D1740165&database=RX&origin=ReaxysOutput&ln=,(1035 of 4000),35840-17-6,Methyl dicyanamide,CH3N(CN)2,C3H3N3,81.0769,acyclic,,XFZQYDDVCYCYAG-UHFFFAOYSA-N,,,,Identification(13); Physical Data(4); Spectra(1),14.0,12.0,235 - 238,,,Sintert bei 220grad.,,,Article; Slotta; Tschesche; Chemische Berichte; vol. 62; (1929); p. 1394;,https://www.reaxys.com/reaxys/secured/hopinto.do?context=C&query=CNR.CNR%3D812709&database=RX&origin=ReaxysOutput&ln=
,NC(C#N)C#N,1740166.0,https://www.reaxys.com/reaxys/secured/hopinto.do?context=S&query=IDE.XRN%3D1740166&database=RX&origin=ReaxysOutput&ln=,(1036 of 4000),5181-05-5,2-aminomalononitrile; aminomalononitrile; Aminomalodinitril; amino-propanedinitrile,H2NCH(CN)2,C3H3N3,81.0769,acyclic,,GXDKXRIMUVUELI-UHFFFAOYSA-N,,,,Identification(70); Physical Data(6); Spectra(2),29.0,91.0,165,,,,,,Patent; LONZA GROUP AG; US4212818; (1980); A;,https://www.reaxys.com/reaxys/secured/hopinto.do?context=C&query=CNR.CNR%3D33982&database=RX&origin=ReaxysOutput&ln=
,[2H]C1=NN=CC=C1,7197408.0,https://www.reaxys.com/reaxys/secured/hopinto.do?context=S&query=IDE.XRN%3D7197408&database=RX&origin=ReaxysOutput&ln=,(1037 of 4000),,3-deuteriopyridazine,C4H3DN2,C4H4N2,81.0812,heterocyclic,,PBMFSQRYOILNGV-WFVSFCRTSA-N,,,,Identification(6); Physical Data(1); Spectra(4),3.0,3.0,62,,,,,,"Article; Ple, Nelly; Turck, Alain; Couture, Karine; Queguiner, Guy; Journal of Organic Chemistry; vol. 60; 12; (1995); p. 3781 - 3786;",https://www.reaxys.com/reaxys/secured/hopinto.do?context=C&query=CNR.CNR%3D5963571&database=RX&origin=ReaxysOutput&ln=
,[2H]C1=CC([2H])=CC([2H])=C1,1850939.0,https://www.reaxys.com/reaxys/secured/hopinto.do?context=S&query=IDE.XRN%3D1850939&database=RX&origin=ReaxysOutput&ln=,(1038 of 4000),1684-47-5,"1,3,5-trideuteriobenzene",C6H3(2)H3,C6H6,81.0898,isocyclic,,UHOVQNZJYSORNB-NHPOFCFZSA-N,,,,Identification(25); Physical Data(21); Spectra(64),22.0,103.0,6.1,,,,,,Article; Weldon; Wilson; Nature; vol. 137; (1936); p. 70;,https://www.reaxys.com/reaxys/secured/hopinto.do?context=C&query=CNR.CNR%3D1696195&database=RX&origin=ReaxysOutput&ln=
,F[H].NCCO,3665144.0,https://www.reaxys.com/reaxys/secured/hopinto.do?context=S&query=IDE.XRN%3D3665144&database=RX&origin=ReaxysOutput&ln=,(1039 of 4000),17140-77-1,2-amino-ethanol; hydro fluoride; 2-Amino-aethanol; Hydrofluorid,CH2(OH)CH2NH3(1+)*F(1-)=CH2(OH)CH2NH3F,C2H8NO*F,81.09,acyclic,,PTOKDFKDUYQOAK-UHFFFAOYSA-N,,,,Identification(5); Physical Data(1),1.0,3.0,35 - 37,ethanol,,,,,Patent; ABBVIE INC; DE855118; (1950); C;,https://www.reaxys.com/reaxys/secured/hopinto.do?context=C&query=CNR.CNR%3D1263751&database=RX&origin=ReaxysOutput&ln=
,CN1C=CC=C1,104181.0,https://www.reaxys.com/reaxys/secured/hopinto.do?context=S&query=IDE.XRN%3D104181&database=RX&origin=ReaxysOutput&ln=,(1041 of 4000),96-54-8,N-Methylpyrrole; 1-methyl-1H-pyrrole; 1-METHYLPYRROLE; 1-Methylpyrrol,C4H4N(CH3),C5H7N,81.1173,heterocyclic,,OXHNLMTVIGZXSG-UHFFFAOYSA-N,,,,Identification(1185); Physical Data(245); Spectra(112); Bioactivity(137),4161.0,2687.0,-42,,,,,,"Article; Milazzo; Bollettino Scientifico della Facolta di Chimica Industriale di Bologna; vol. 2; (1941); p. 94,97;",https://www.reaxys.com/reaxys/secured/hopinto.do?context=C&query=CNR.CNR%3D984434&database=RX&origin=ReaxysOutput&ln=
,C1NC=CC=C1,1560240.0,https://www.reaxys.com/reaxys/secured/hopinto.do?context=S&query=IDE.XRN%3D1560240&database=RX&origin=ReaxysOutput&ln=,(1042 of 4000),22694-45-7,"1,2-dihydropyridine",C5H6NH,C5H7N,81.1173,heterocyclic,,MMWRGWQTAMNAFC-UHFFFAOYSA-N,,,,Identification(137); Physical Data(16); Spectra(16),54.0,171.0,68 - 90,,,,,,Patent; BRISTOL-MYERS SQUIBB CO; US5554621; (1996); A;; ; Patent; BRISTOL-MYERS SQUIBB CO; US5635503; (1997); A;; ; Patent; BRISTOL-MYERS SQUIBB CO; US5668151; (1997); A;,https://www.reaxys.com/reaxys/secured/hopinto.do?context=C&query=CNR.CNR%3D139615&database=RX&origin=ReaxysOutput&ln=
,ClN(=O)=O,4921432.0,https://www.reaxys.com/reaxys/secured/hopinto.do?context=S&query=IDE.XRN%3D4921432&database=RX&origin=ReaxysOutput&ln=,(1043 of 4000),,Nitryl chloride,NO2Cl,ClNO2,81.4585,,,HVZWVEKIQMJYIK-UHFFFAOYSA-N,,,,Identification(295); Physical Data(113); Spectra(71),211.0,561.0,-145,,,,,,"Article; Obermeyer, Axel; Borrmann, Horst; Simon, Arndt; Journal of the American Chemical Society; vol. 117; 30; (1995); p. 7887 - 7890;; ; Article; Hetherington, G.; Robinson, P. L.; Journal of the Chemical Society; Journal of the Chemical Society; (1955); p. 2230 - 2233;; ; Article; Schumacher, H. J.; Sprenger, G.; Zeitschrift fur Anorganische und Allgemeine Chemie; Zeitschrift fuer Anorganische und Allgemeine Chemie; vol. 182; (1929); p. 139 - 144;; ; Article; Gmelin Handbuch der Anorganischen Chemie; vol. Cl: SVol.B2; 97, page 524 - 527; (from Gmelin)",https://www.reaxys.com/reaxys/secured/hopinto.do?context=C&query=CNR.CNR%3D5972489&database=RX&origin=ReaxysOutput&ln=
,Cl[H].ON=C,3546406.0,https://www.reaxys.com/reaxys/secured/hopinto.do?context=S&query=IDE.XRN%3D3546406&database=RX&origin=ReaxysOutput&ln=,(1044 of 4000),3473-11-8,formaldoxime hydrochloride,H2CNOH*HCl,CH3NO*ClH,81.5019,acyclic,,ZNGCJNWNSDXSQQ-UHFFFAOYSA-N,,,,Identification(5); Physical Data(2); Spectra(1),12.0,9.0,136,,,,,,Article; Dunstan; Bossi; Journal of the Chemical Society; vol. 73; (1898); p. 360;,https://www.reaxys.com/reaxys/secured/hopinto.do?context=C&query=CNR.CNR%3D1124590&database=RX&origin=ReaxysOutput&ln=
,Cl[H].CNC,3589311.0,https://www.reaxys.com/reaxys/secured/hopinto.do?context=S&query=IDE.XRN%3D3589311&database=RX&origin=ReaxysOutput&ln=,(1045 of 4000),506-59-2,"N,N-dimethylammonium chloride; dimethylamine hydrochloride; dimethylammonium chloride; N,N-dimethylamine hydrochloride; N-methylmethanamine hydrochloride; dimethylamino hydrochloride; dimethylamine hydrochloride salt; dimethylamine hydrogen chloride; dimethylamine monohydrochloride; dimethylammonium hydrochloride; Me2NH*HCl; methylmethanamine hydrochloride; dimethyl amine hydrochloide; methylamine hydrochloride; dimethylamine",H2N(CH3)2(1+)*Cl(1-)=H2N(CH3)2Cl,C2H8N*Cl,81.5452,acyclic,,IQDGSYLLQPDQDV-UHFFFAOYSA-N,,,,Identification(497); Physical Data(62); Spectra(45); Bioactivity(278),6619.0,5181.0,170 - 171,acetonitrile,,,,,Article; Bodrikov; Nikitina; Subbotin; Doklady Chemistry; vol. 436; 1; (2011); p. 1 - 4;,https://www.reaxys.com/reaxys/secured/hopinto.do?context=C&query=CNR.CNR%3D20006031&database=RX&origin=ReaxysOutput&ln=
,Cl[H].CCN,3589312.0,https://www.reaxys.com/reaxys/secured/hopinto.do?context=S&query=IDE.XRN%3D3589312&database=RX&origin=ReaxysOutput&ln=,(1046 of 4000),557-66-4,ethanamine hydrochloride; ethylamine hydrochloride; ethylammonium chloride; aminoethane hydrochloride; ethyl amine hydrochloride salt; ethylamine HCl salt; monoethylamine hydrochloride,CH3CH2NH2*HCl,C2H8N*Cl,81.5452,acyclic,,XWBDWHCCBGMXKG-UHFFFAOYSA-N,,,,Identification(289); Physical Data(103); Spectra(37); Bioactivity(77),1466.0,1482.0,108 - 109,propan-1-ol,supporting information,,,,"Article; Jackson, Douglas M.; Ashley, Robert L.; Brownfield, Callan B.; Morrison, Daniel R.; Morrison, Richard W.; Synthetic Communications; vol. 45; 23; (2015); p. 2691 - 2700;",https://www.reaxys.com/reaxys/secured/hopinto.do?context=C&query=CNR.CNR%3D67706612&database=RX&origin=ReaxysOutput&ln=