Structure: Image,SMILES,Substance Identification: Reaxys Registry Number,Links to Reaxys,Data Count,CAS Registry Number,Chemical Name,Linear Structure Formula,Molecular Formula,Molecular Weight,Type of Substance,Type and Modification,InChI Key,Composition: Comp. Name,Composition: Comp. Conc.,Composition: Comp. Attrib.,Field Availability,Number of Reactions,Number of References,Melting Point: Melting Point [C],Solvent (Melting Point),Location,Comment (Melting Point),Crystallizes With,Amount (Melting Point) [mol],References,Links to Reaxys.1
,[H+].[Na+].[O-]C([O-])=O,13191836.0,https://www.reaxys.com/reaxys/secured/hopinto.do?context=S&query=IDE.XRN%3D13191836&database=RX&origin=ReaxysOutput&ln=,(1177 of 4000),,sodium bicarbonate; sodium hydrogen carbonate; anhydrous sodium hydrogen carbonate,CO3(2-)*H(1+)*Na(1+),CO3*H*Na,84.0069,,,UIIMBOGNXHQVGW-UHFFFAOYSA-M,,,,Identification(197); Physical Data(3); Spectra(2),32.0,239.0,102 - 103,,,,,,Patent; RICOH CO LTD; US2008/304867; (2008); A1;,https://www.reaxys.com/reaxys/secured/hopinto.do?context=C&query=CNR.CNR%3D8665708&database=RX&origin=ReaxysOutput&ln=
,CC(F)(F)F,1731552.0,https://www.reaxys.com/reaxys/secured/hopinto.do?context=S&query=IDE.XRN%3D1731552&database=RX&origin=ReaxysOutput&ln=,(1178 of 4000),420-46-2,"1,1,1-Trifluoroethane",CH3CF3,C2H3F3,84.041,acyclic,,UJPMYEOUBPIPHQ-UHFFFAOYSA-N,,,,Identification(345); Physical Data(170); Spectra(71); Bioactivity(42),150.0,651.0,-111.34,,,,,,"Article; Russel; Golding; Yost; Journal of the American Chemical Society; vol. 66; (1944); p. 17,18;",https://www.reaxys.com/reaxys/secured/hopinto.do?context=C&query=CNR.CNR%3D1330653&database=RX&origin=ReaxysOutput&ln=
,FCC(F)F,1731624.0,https://www.reaxys.com/reaxys/secured/hopinto.do?context=S&query=IDE.XRN%3D1731624&database=RX&origin=ReaxysOutput&ln=,(1179 of 4000),430-66-0,"1,1,2-Trifluoroethan",C2H3F3,C2H3F3,84.041,acyclic,,WGZYQOSEVSXDNI-UHFFFAOYSA-N,,,,Identification(69); Physical Data(29); Spectra(33),39.0,139.0,-84,,,,,,Article; Young; Fukuhara; Bigelow; Journal of the American Chemical Society; vol. 62; (1940); p. 1173;,https://www.reaxys.com/reaxys/secured/hopinto.do?context=C&query=CNR.CNR%3D1330662&database=RX&origin=ReaxysOutput&ln=
,[2H]OC(C([2H])([2H])[2H])(C([2H])([2H])[2H])C([2H])([2H])[2H],2040998.0,https://www.reaxys.com/reaxys/secured/hopinto.do?context=S&query=IDE.XRN%3D2040998&database=RX&origin=ReaxysOutput&ln=,(1180 of 4000),53001-22-2,tert-butanol-d10; tert-butyl alcohol-d10; 2-methyl-2-propanol-d10,C4(2)H10O,C4H10O,84.0434,acyclic; Isotope or isotope containing compound,,DKGAVHZHDRPRBM-SGLLWXCUSA-N,,,,Identification(16); Physical Data(5); Spectra(6),22.0,44.0,11,,supporting information,,,,"Article; Johnson, Jarrod W.; Evanoff, Darryl P.; Savard, Marc E.; Lange, Gerald; Ramadhar, Timothy R.; Assoud, Abdeljalil; Taylor, Nicholas J.; Dmitrienko, Gary I.; Journal of Organic Chemistry; vol. 73; 18; (2008); p. 6970 - 6982;",https://www.reaxys.com/reaxys/secured/hopinto.do?context=C&query=CNR.CNR%3D8726678&database=RX&origin=ReaxysOutput&ln=
,[2H]C([2H])([2H])C([2H])([2H])C([2H])([2H])C([2H])([2H])C([2H])([2H])[2H],1841174.0,https://www.reaxys.com/reaxys/secured/hopinto.do?context=S&query=IDE.XRN%3D1841174&database=RX&origin=ReaxysOutput&ln=,(1181 of 4000),2031-90-5,pentane-d12; n-Deuteropentan,C(2)H3C(2)H2C(2)H2C(2)H2C(2)H3,C5H12,84.055,acyclic,,OFBQJSOFQDEBGM-HYVJACIRSA-N,,,,Identification(14); Physical Data(11); Spectra(7),14.0,27.0,-129.67,,,,,,Article; Clarke; Castro; Inaba; Arnold; Thomas; Physical Chemistry Chemical Physics; vol. 1; 22; (1999); p. 5203 - 5207;,https://www.reaxys.com/reaxys/secured/hopinto.do?context=C&query=CNR.CNR%3D6205480&database=RX&origin=ReaxysOutput&ln=
,[2H]C1=NC([2H])=C([2H])N=C1[2H],606688.0,https://www.reaxys.com/reaxys/secured/hopinto.do?context=S&query=IDE.XRN%3D606688&database=RX&origin=ReaxysOutput&ln=,(1182 of 4000),1758-62-9,pyrazine-d4; Pyrazin-d4; Tetradeuterio-pyrazin; Tetradeuteropyrazin; <2H4>pyrazine; Perdeuteropyrazin,C4N2D4,C4H4N2,84.0574,heterocyclic,,KYQCOXFCLRTKLS-RHQRLBAQSA-N,,,,Identification(20); Physical Data(21); Spectra(25),25.0,74.0,54 - 56,,,,,,"Article; Califano et al.; Spectrochimica Acta; vol. 20; (1964); p. 385,395;",https://www.reaxys.com/reaxys/secured/hopinto.do?context=C&query=CNR.CNR%3D2631535&database=RX&origin=ReaxysOutput&ln=
,[2H]C1=C([2H])C([2H])=C([2H])C([2H])=C1[2H],1905426.0,https://www.reaxys.com/reaxys/secured/hopinto.do?context=S&query=IDE.XRN%3D1905426&database=RX&origin=ReaxysOutput&ln=,(1183 of 4000),1076-43-3,benzene-d6; hexadeuterobenzene,C6((2)H)6,C6H6,84.066,isocyclic,,UHOVQNZJYSORNB-MZWXYZOWSA-N,,,,Identification(95); Physical Data(411); Spectra(165),1628.0,1742.0,6.7,,,,,,Article; Ziegler; Andrews; Journal of the American Chemical Society; vol. 64; (1942); p. 2482;,https://www.reaxys.com/reaxys/secured/hopinto.do?context=C&query=CNR.CNR%3D1696242&database=RX&origin=ReaxysOutput&ln=
,O=C1CC=CO1,1362.0,https://www.reaxys.com/reaxys/secured/hopinto.do?context=S&query=IDE.XRN%3D1362&database=RX&origin=ReaxysOutput&ln=,(1184 of 4000),20825-71-2,2(3H)-furanone; 3H-Furan-2-one,C4H4O2,C4H4O2,84.0746,heterocyclic,,RHDGNLCLDBVESU-UHFFFAOYSA-N,,,,Identification(455); Physical Data(11); Spectra(18); Bioactivity(1),76.0,492.0,80,,,,,,Article; Hodgson; Davies; Journal of the Chemical Society; (1939); p. 1013;,https://www.reaxys.com/reaxys/secured/hopinto.do?context=C&query=CNR.CNR%3D587466&database=RX&origin=ReaxysOutput&ln=
,C=C1CC(=O)O1,104541.0,https://www.reaxys.com/reaxys/secured/hopinto.do?context=S&query=IDE.XRN%3D104541&database=RX&origin=ReaxysOutput&ln=,(1185 of 4000),674-82-8,4-methyleneoxetan-2-one; diketene; acetyl ketene; 4-methylideneoxetan-2-one; deketene; 4-methylene-2-oxetanone,(CH2)CCH2C(O)O,C4H4O2,84.0746,heterocyclic,,WASQWSOJHCZDFK-UHFFFAOYSA-N,,,,Identification(91); Physical Data(62); Spectra(28); Bioactivity(73),3473.0,1452.0,-6.5,,,,,,"Article; Olah,G.A.; Kuhn,S.J.; Journal of Organic Chemistry; vol. 26; (1961); p. 225 - 227;; ; Article; Boese; Industrial and Engineering Chemistry; vol. 32; (1940); p. 16,20;; ; Article; Ford; Richards; Discussions of the Faraday Society; vol. 19; (1955); p. 193;",https://www.reaxys.com/reaxys/secured/hopinto.do?context=C&query=CNR.CNR%3D173352&database=RX&origin=ReaxysOutput&ln=
,O=C1COC=C1,105220.0,https://www.reaxys.com/reaxys/secured/hopinto.do?context=S&query=IDE.XRN%3D105220&database=RX&origin=ReaxysOutput&ln=,(1186 of 4000),3511-31-7,"3(2H)-furanone; 4-oxo-4,5,6,7-tetrahydrofuran",C4H4O2,C4H4O2,84.0746,heterocyclic,,LYINKTVZUSKQEQ-UHFFFAOYSA-N,,,,Identification(103); Physical Data(5); Spectra(9),16.0,105.0,76 - 77,,,,,,Patent; ROCHE HOLDING AG; US3933892; (1976); A;,https://www.reaxys.com/reaxys/secured/hopinto.do?context=C&query=CNR.CNR%3D15451&database=RX&origin=ReaxysOutput&ln=
,O=C1OCC=C1,383585.0,https://www.reaxys.com/reaxys/secured/hopinto.do?context=S&query=IDE.XRN%3D383585&database=RX&origin=ReaxysOutput&ln=,(1187 of 4000),497-23-4,2(5H)-Furanone; 2-buten-4-olide,C4H4O(O),C4H4O2,84.0746,heterocyclic,,VIHAEDVKXSOUAT-UHFFFAOYSA-N,,,,Identification(1015); Physical Data(79); Spectra(91); Bioactivity(99),1294.0,1614.0,5,,,,,,"Article; Judge; Price; Journal of Polymer Science; vol. 41; (1959); p. 435,442;; ; Article; Glattfeld; Stack; Journal of the American Chemical Society; vol. 59; (1937); p. 753,757;; ; Article; Braun; Journal of the American Chemical Society; vol. 51; (1929); p. 230,238; Journal of the American Chemical Society; vol. 52; (1930); p. 3180;",https://www.reaxys.com/reaxys/secured/hopinto.do?context=C&query=CNR.CNR%3D542849&database=RX&origin=ReaxysOutput&ln=
,COC(=O)C#C,605462.0,https://www.reaxys.com/reaxys/secured/hopinto.do?context=S&query=IDE.XRN%3D605462&database=RX&origin=ReaxysOutput&ln=,(1188 of 4000),922-67-8,propynoic acid methyl ester; propiolic acid methyl ester; methyl propynoate; methylpropiolate,CHCC(O)OCH3,C4H4O2,84.0746,acyclic,,IMAKHNTVDGLIRY-UHFFFAOYSA-N,,,,Identification(749); Physical Data(35); Spectra(39); Bioactivity(257),9778.0,5054.0,57,,,,,,Patent; BAYER AG; Monsanto (in: Bayer); US3383403; (1963); A; Chem.Abstr.; vol. 69; 35475k; (1968); Chem.Abstr.; vol. 69; 35475k; (1968);,https://www.reaxys.com/reaxys/secured/hopinto.do?context=C&query=CNR.CNR%3D4112946&database=RX&origin=ReaxysOutput&ln=
,O=C\C=C/C=O,1719539.0,https://www.reaxys.com/reaxys/secured/hopinto.do?context=S&query=IDE.XRN%3D1719539&database=RX&origin=ReaxysOutput&ln=,(1189 of 4000),3675-13-6,"cis-butenedial; cis-2-Butene-1,4-dial; maleic dialdehyde",CHCHCHOCHO,C4H4O2,84.0746,acyclic,,JGEMYUOFGVHXKV-UPHRSURJSA-N,,,,Identification(240); Physical Data(10); Spectra(20); Bioactivity(21),74.0,276.0,42 - 44,benzene,,solid form,,,"Article; Hufford et al.; Journal of the American Chemical Society; vol. 74; (1952); p. 3014,3017;",https://www.reaxys.com/reaxys/secured/hopinto.do?context=C&query=CNR.CNR%3D1846312&database=RX&origin=ReaxysOutput&ln=
,O=C\C=C\C=O,1719541.0,https://www.reaxys.com/reaxys/secured/hopinto.do?context=S&query=IDE.XRN%3D1719541&database=RX&origin=ReaxysOutput&ln=,(1190 of 4000),3675-14-7,"fumaraldehyde; trans-2-butene-1,4-dial; trans-butenedial",(CHCHO)2,C4H4O2,84.0746,acyclic,,JGEMYUOFGVHXKV-OWOJBTEDSA-N,,,,Identification(91); Physical Data(8); Spectra(9),40.0,89.0,39.85 - 43.85,,,,,,"Article; Berndt, Torsten; Boege, Olaf; Zeitschrift fur Physikalische Chemie; vol. 218; 4; (2004); p. 391 - 403;",https://www.reaxys.com/reaxys/secured/hopinto.do?context=C&query=CNR.CNR%3D6540823&database=RX&origin=ReaxysOutput&ln=
,OC(=O)C=C=C,1737801.0,https://www.reaxys.com/reaxys/secured/hopinto.do?context=S&query=IDE.XRN%3D1737801&database=RX&origin=ReaxysOutput&ln=,(1191 of 4000),5732-10-5,"2,3-butadienoic acid",C4H4O2,C4H4O2,84.0746,acyclic,,BZYFSQTXMFJOEB-UHFFFAOYSA-N,,,,Identification(24); Physical Data(16); Spectra(21); Bioactivity(6),97.0,63.0,62 - 63,,supporting information,,,,"Article; Matsushita, Kyohei; Suzuki, Keisuke; Ohmori, Ken; Synlett; vol. 28; 8; (2017); p. 944 - 950;",https://www.reaxys.com/reaxys/secured/hopinto.do?context=C&query=CNR.CNR%3D71155465&database=RX&origin=ReaxysOutput&ln=
,OC(=O)CC#C,1739296.0,https://www.reaxys.com/reaxys/secured/hopinto.do?context=S&query=IDE.XRN%3D1739296&database=RX&origin=ReaxysOutput&ln=,(1192 of 4000),2345-51-9,3-butynoic acid; but-3-ynoic acid; cyanoacetic acid; 3-butynoate,HCCCH2COOH,C4H4O2,84.0746,acyclic,,KKAHGSQLSTUDAV-UHFFFAOYSA-N,,,,Identification(46); Physical Data(20); Spectra(25); Bioactivity(24),219.0,147.0,83 - 83.5,,,,,,"Article; Bigley; Weatherhead; Journal of the Chemical Society. Perkin transactions II; (1976); p. 592,594;",https://www.reaxys.com/reaxys/secured/hopinto.do?context=C&query=CNR.CNR%3D4394059&database=RX&origin=ReaxysOutput&ln=
,CC#CC(O)=O,1740205.0,https://www.reaxys.com/reaxys/secured/hopinto.do?context=S&query=IDE.XRN%3D1740205&database=RX&origin=ReaxysOutput&ln=,(1193 of 4000),590-93-2,2-Butynoic acid,CH3CCCO2H,C4H4O2,84.0746,acyclic,,LUEHNHVFDCZTGL-UHFFFAOYSA-N,,,,Identification(200); Physical Data(90); Spectra(30); Bioactivity(57),1775.0,967.0,76 - 78,,,,,,"Article; Saraswatula, Viswanadha G.; Bhattacharya, Suman; Saha, Binoy K.; New Journal of Chemistry; vol. 39; 5; (2015); p. 3345 - 3348;",https://www.reaxys.com/reaxys/secured/hopinto.do?context=C&query=CNR.CNR%3D66166270&database=RX&origin=ReaxysOutput&ln=
,O=C1CCC1=O,2038592.0,https://www.reaxys.com/reaxys/secured/hopinto.do?context=S&query=IDE.XRN%3D2038592&database=RX&origin=ReaxysOutput&ln=,(1194 of 4000),33689-28-0,"cyclobutane-1,2-dione; 1,2-cyclobutanedione; Cyclobutan-1,2-dion; 1,2-Cyclobutandion",C4H4O2,C4H4O2,84.0746,isocyclic,,QDMRCCGQLCIMLG-UHFFFAOYSA-N,,,,Identification(32); Physical Data(15); Spectra(19),29.0,34.0,65,,,,,,Article; Denis; Champion; Conia; Organic Syntheses; vol. 60; (1981); p. 18 - 18;,https://www.reaxys.com/reaxys/secured/hopinto.do?context=C&query=CNR.CNR%3D71127856&database=RX&origin=ReaxysOutput&ln=
,OC(=O)C1C=C1,2072087.0,https://www.reaxys.com/reaxys/secured/hopinto.do?context=S&query=IDE.XRN%3D2072087&database=RX&origin=ReaxysOutput&ln=,(1195 of 4000),26209-00-7,cycloprop-2-ene-1-carboxylic acid; 1-Cyclopropen-3-carbonsaeure; 2-Cyclopropen-1-carbonsaeure; cycloprop-2-enecarboxylic acid,C4H4O2,C4H4O2,84.0746,isocyclic,,DBWAQSJZNKRLLE-UHFFFAOYSA-N,,,,Identification(14); Physical Data(4); Spectra(5); Bioactivity(1),7.0,14.0,40 - 41,,,,,,Patent; UNIVERSITY OF DELAWARE; US2009/23916; (2009); A1;,https://www.reaxys.com/reaxys/secured/hopinto.do?context=C&query=CNR.CNR%3D8695271&database=RX&origin=ReaxysOutput&ln=
,O=C1CC(=O)C1,2497765.0,https://www.reaxys.com/reaxys/secured/hopinto.do?context=S&query=IDE.XRN%3D2497765&database=RX&origin=ReaxysOutput&ln=,(1196 of 4000),15506-53-3,"cyclobutane-1,3-dione; Cyclobutan-1,3-dion; 1,3-Cyclobutanedione; Cyclobutandion-(1.3)",C4H4O2,C4H4O2,84.0746,isocyclic,,PZQGSZRQKQZCOJ-UHFFFAOYSA-N,,,,Identification(28); Physical Data(11); Spectra(16),56.0,46.0,116 - 120,,,,,,"Article; Chickos et al.; Journal of Organic Chemistry; vol. 43; (1978); p. 1146,1148;",https://www.reaxys.com/reaxys/secured/hopinto.do?context=C&query=CNR.CNR%3D3602645&database=RX&origin=ReaxysOutput&ln=
,OC1C(=C)C1=O,8541197.0,https://www.reaxys.com/reaxys/secured/hopinto.do?context=S&query=IDE.XRN%3D8541197&database=RX&origin=ReaxysOutput&ln=,(1197 of 4000),,2-Hydroxy-3-methylene cyclopropanone,C4H4O2,C4H4O2,84.0746,isocyclic,,RWCLCTYWAIRJIL-UHFFFAOYSA-N,,,,Identification(6); Physical Data(2); Spectra(4); Bioactivity(5),,2.0,82,,,,,,"Article; Alvi, Khisal A.; Nair, Bipin G.; Rabenstein, John; Davis, Grace; Baker, Dwight D.; Journal of Antibiotics; vol. 53; 2; (2000); p. 110 - 113;",https://www.reaxys.com/reaxys/secured/hopinto.do?context=C&query=CNR.CNR%3D6236123&database=RX&origin=ReaxysOutput&ln=
,NC1=NC=CO1,105736.0,https://www.reaxys.com/reaxys/secured/hopinto.do?context=S&query=IDE.XRN%3D105736&database=RX&origin=ReaxysOutput&ln=,(1198 of 4000),4570-45-0,"2-amino-1,3-oxazole; 2-aminooxazole; oxazol-2-amine; 1,3-oxazol-2-amine; oxazole-2-amine; 2-Amino-oxazol; 2-amino-(I,3)-oxazole; 1,3-oxazole-2-amine; 2-aminoxazole",C3H4N2O,C3H4N2O,84.0776,heterocyclic,,ACTKAGSPIFDCMF-UHFFFAOYSA-N,,,,Identification(138); Physical Data(15); Spectra(19),279.0,235.0,95 - 95.5,,,,,,Article; Selva et al.; Organic Mass Spectrometry; vol. 14; (1979); p. 663;,https://www.reaxys.com/reaxys/secured/hopinto.do?context=C&query=CNR.CNR%3D2728287&database=RX&origin=ReaxysOutput&ln=
,O=C1NC=CN1,105774.0,https://www.reaxys.com/reaxys/secured/hopinto.do?context=S&query=IDE.XRN%3D105774&database=RX&origin=ReaxysOutput&ln=,(1199 of 4000),5918-93-4,"1,3-dihydroimidazolone; Imidazolin-2-on",C3H4N2O,C3H4N2O,84.0776,heterocyclic,,AICIYIDUYNFPRY-UHFFFAOYSA-N,,,,Identification(43); Physical Data(20); Spectra(16); Bioactivity(1),102.0,81.0,240.7 - 242.3,,supporting information,with decomposition,,,"Article; Fiala, Tomas; Sindelar, Vladimir; Synlett; vol. 24; 18; (2013); p. 2443 - 2445;",https://www.reaxys.com/reaxys/secured/hopinto.do?context=C&query=CNR.CNR%3D61686050&database=RX&origin=ReaxysOutput&ln=
,O=C1NNC=C1,106267.0,https://www.reaxys.com/reaxys/secured/hopinto.do?context=S&query=IDE.XRN%3D106267&database=RX&origin=ReaxysOutput&ln=,(1200 of 4000),137-45-1,"1,2-dihydropyrazol-3-one; 1H-pyrazol-3(2H)-one; 1,2-dihydro-3H-pyrazol-3-one; Pyrazolone",C3H4N2O,C3H4N2O,84.0776,heterocyclic,,XBYRMPXUBGMOJC-UHFFFAOYSA-N,,,,Identification(768); Physical Data(18); Spectra(21),74.0,794.0,156,,,,,,"Article; Medvedeva, A. S.; Demina, M. M.; Kalikhman, I. D.; Kositsyna, E. I.; Vyazankin, N. S.; Journal of general chemistry of the USSR; vol. 57; 2; (1987); p. 409 - 411; Zhurnal Obshchei Khimii; vol. 57; 2; (1987); p. 468 - 471;",https://www.reaxys.com/reaxys/secured/hopinto.do?context=C&query=CNR.CNR%3D5881630&database=RX&origin=ReaxysOutput&ln=
,OC1=CNN=C1,106311.0,https://www.reaxys.com/reaxys/secured/hopinto.do?context=S&query=IDE.XRN%3D106311&database=RX&origin=ReaxysOutput&ln=,(1201 of 4000),4843-98-5,1H-pyrazol-4-ol; 4-hydroxy-pyrazole,C3H4N2O,C3H4N2O,84.0776,heterocyclic,,KAUABWYBFARJAF-UHFFFAOYSA-N,,,,Identification(23); Physical Data(4); Spectra(3); Bioactivity(3),20.0,30.0,116 - 118,,,,,,"Article; Fagan,P.J. et al.; Canadian Journal of Chemistry; vol. 57; (1979); p. 904 - 912;",https://www.reaxys.com/reaxys/secured/hopinto.do?context=C&query=CNR.CNR%3D29764&database=RX&origin=ReaxysOutput&ln=
,O=C1CC=NN1,605748.0,https://www.reaxys.com/reaxys/secured/hopinto.do?context=S&query=IDE.XRN%3D605748&database=RX&origin=ReaxysOutput&ln=,(1202 of 4000),137-44-0,Pyrazolon-(5); 2-Pyrazolin-5-on; 2-pyrazolin-5-one,C3H4N2O,C3H4N2O,84.0776,heterocyclic,,ZRHUHDUEXWHZMA-UHFFFAOYSA-N,,,,Identification(55); Physical Data(5); Spectra(3),19.0,58.0,161,,,,,,"Article; Khan, Misbahul Ain; Cosenza, Alina Guerra; Ellis, Gwynn Pennant; Journal of Heterocyclic Chemistry; vol. 19; (1982); p. 1077 - 1085;",https://www.reaxys.com/reaxys/secured/hopinto.do?context=C&query=CNR.CNR%3D5563937&database=RX&origin=ReaxysOutput&ln=
,NC1=CC=NO1,605754.0,https://www.reaxys.com/reaxys/secured/hopinto.do?context=S&query=IDE.XRN%3D605754&database=RX&origin=ReaxysOutput&ln=,(1203 of 4000),14678-05-8,isoxazol-5-amine; 5-Aminoisoxazol; 5-isoxazolamine; 5-aminoisoxazole,C3H4N2O,C3H4N2O,84.0776,heterocyclic,,IAXWZYXUKABJAN-UHFFFAOYSA-N,,,,Identification(28); Physical Data(4); Spectra(10); Bioactivity(9),20.0,42.0,74 - 76,,,,,,Article; Hearn et al.; Journal of the Chemical Society. Perkin transactions I; (1974); p. 2335;,https://www.reaxys.com/reaxys/secured/hopinto.do?context=C&query=CNR.CNR%3D2681602&database=RX&origin=ReaxysOutput&ln=
,OC1=CC=NN1,635959.0,https://www.reaxys.com/reaxys/secured/hopinto.do?context=S&query=IDE.XRN%3D635959&database=RX&origin=ReaxysOutput&ln=,(1204 of 4000),60456-93-1,1H-pyrazol-5-ol; 5-hydroxy-pyrazole,C3H4N2O,C3H4N2O,84.0776,heterocyclic,,XBYRMPXUBGMOJC-UHFFFAOYSA-N,,,,Identification(26); Physical Data(1),8.0,32.0,166,,,,,,Article; Dorn; Zubek; Journal fur praktische Chemie (Leipzig 1954); vol. 313; (1971); p. 1118;,https://www.reaxys.com/reaxys/secured/hopinto.do?context=C&query=CNR.CNR%3D2715630&database=RX&origin=ReaxysOutput&ln=
,O=C1CCN=N1,635992.0,https://www.reaxys.com/reaxys/secured/hopinto.do?context=S&query=IDE.XRN%3D635992&database=RX&origin=ReaxysOutput&ln=,(1205 of 4000),26485-14-3,"1-Pyrazolin-3-on; 4,5-dihydro-pyrazol-3-one",C3H4N2O,C3H4N2O,84.0776,heterocyclic,,ZURLOZJIDLZAOI-UHFFFAOYSA-N,,,,Identification(6); Physical Data(1); Spectra(3),2.0,1.0,22 - 23,,,,,,"Article; Nagata,W.; Kamata,S.; Journal of the Chemical Society C: Organic; (1970); p. 540 - 550;",https://www.reaxys.com/reaxys/secured/hopinto.do?context=C&query=CNR.CNR%3D198283&database=RX&origin=ReaxysOutput&ln=
,O=C1CNN=C1,635996.0,https://www.reaxys.com/reaxys/secured/hopinto.do?context=S&query=IDE.XRN%3D635996&database=RX&origin=ReaxysOutput&ln=,(1206 of 4000),27662-65-3,pyrazolinone,C3H4N2O,C3H4N2O,84.0776,heterocyclic,,SEMXWBFSIDIGPO-UHFFFAOYSA-N,,,,Identification(36); Physical Data(3); Spectra(3),10.0,37.0,220 - 223,,,,,,Patent; EASTMAN KODAK CO; US4374253; (1983); A;,https://www.reaxys.com/reaxys/secured/hopinto.do?context=C&query=CNR.CNR%3D41594&database=RX&origin=ReaxysOutput&ln=
,OC1=NNC=C1,635997.0,https://www.reaxys.com/reaxys/secured/hopinto.do?context=S&query=IDE.XRN%3D635997&database=RX&origin=ReaxysOutput&ln=,(1207 of 4000),137-45-1,1H-pyrazol-3-ol; 3-hydroxy-1H-pyrazole; 3-hydroxy pyrazole,C3H4N2O,C3H4N2O,84.0776,heterocyclic,,XBYRMPXUBGMOJC-UHFFFAOYSA-N,,,,Identification(41); Physical Data(6); Spectra(13); Bioactivity(3),22.0,53.0,156 - 157,,Paragraph 0055,,,,Patent; ZHEJIANG UNIVERSITY OF TECHNOLOGY; (9 pag.)CN113387887; (2021); A;,https://www.reaxys.com/reaxys/secured/hopinto.do?context=C&query=CNR.CNR%3D99719301&database=RX&origin=ReaxysOutput&ln=