Structure: Image,SMILES,Substance Identification: Reaxys Registry Number,Links to Reaxys,Data Count,CAS Registry Number,Chemical Name,Linear Structure Formula,Molecular Formula,Molecular Weight,Type of Substance,Type and Modification,InChI Key,Composition: Comp. Name,Composition: Comp. Conc.,Composition: Comp. Attrib.,Field Availability,Number of Reactions,Number of References,Melting Point: Melting Point [C],Solvent (Melting Point),Location,Comment (Melting Point),Crystallizes With,Amount (Melting Point) [mol],References,Links to Reaxys.1
,NC(=O)C1CN1,471363.0,https://www.reaxys.com/reaxys/secured/hopinto.do?context=S&query=IDE.XRN%3D471363&database=RX&origin=ReaxysOutput&ln=,(1435 of 4000),5950-35-6,2-carbamoylaziridine; aziridine-2-carboxamide; leakadine; Aziridin-2-carbonsaeureamid; 2-aziridine-carboxamide,C3H6N2O,C3H6N2O,86.0934,heterocyclic,,LZRVAAYXGFWSDY-UHFFFAOYSA-N,,,,Identification(24); Physical Data(11); Spectra(6); Bioactivity(5),48.0,30.0,132,methanol,,,,,"Article; Turks; Rijkure; Belyakov; Zicane; Kumpins; Bizdena; Meikas; Valkna; Chemistry of Heterocyclic Compounds; vol. 48; 6; (2012); p. 861 - 868; Khim. Geterotsikl. Soedin.; vol. 48; 6; (2012); p. 928 - 935,8;",https://www.reaxys.com/reaxys/secured/hopinto.do?context=C&query=CNR.CNR%3D35263818&database=RX&origin=ReaxysOutput&ln=
,[H][C@]1(CN1)C(N)=O,471364.0,https://www.reaxys.com/reaxys/secured/hopinto.do?context=S&query=IDE.XRN%3D471364&database=RX&origin=ReaxysOutput&ln=,(1436 of 4000),67413-30-3,(S)-aziridine-2-carboxamide,C3H6N2O,C3H6N2O,86.0934,heterocyclic,,LZRVAAYXGFWSDY-REOHCLBHSA-N,,,,Identification(8); Physical Data(6); Spectra(4),14.0,4.0,153,methanol,,,,,"Article; Turks; Rijkure; Belyakov; Zicane; Kumpins; Bizdena; Meikas; Valkna; Chemistry of Heterocyclic Compounds; vol. 48; 6; (2012); p. 861 - 868; Khim. Geterotsikl. Soedin.; vol. 48; 6; (2012); p. 928 - 935,8;",https://www.reaxys.com/reaxys/secured/hopinto.do?context=C&query=CNR.CNR%3D35263818&database=RX&origin=ReaxysOutput&ln=
,N=C1NCCO1,506853.0,https://www.reaxys.com/reaxys/secured/hopinto.do?context=S&query=IDE.XRN%3D506853&database=RX&origin=ReaxysOutput&ln=,(1437 of 4000),24665-93-8,"2-Imino-oxazolidin-(1.3); 2-Imino-1,3-oxazolidin; 4,5-dihydro-oxazol-2-ylamine; Oxazolidon-(2)-imid; iminooxazolidine; (S)-oxazolidinone imine",C3H6N2O,C3H6N2O,86.0934,heterocyclic,,YAXGBZDYGZBRBQ-UHFFFAOYSA-N,,,,Identification(21); Physical Data(4); Bioactivity(3),18.0,26.0,105,,,,,,"Article; Latli, Bachir; D'Amour, Kevin; Casida, John E.; Journal of Medicinal Chemistry; vol. 42; 12; (1999); p. 2227 - 2234;",https://www.reaxys.com/reaxys/secured/hopinto.do?context=C&query=CNR.CNR%3D6189817&database=RX&origin=ReaxysOutput&ln=
,NC(=O)NC=C,1699929.0,https://www.reaxys.com/reaxys/secured/hopinto.do?context=S&query=IDE.XRN%3D1699929&database=RX&origin=ReaxysOutput&ln=,(1438 of 4000),13370-08-6,allylyrea; ethyleneurea; Ethylenharnstoff; N-Vinyl-harnstoff; propylene urea; Vinylharnstoff; N-vinylurea; vinylurea,C3H6N2O,C3H6N2O,86.0934,acyclic,,FAFWKDXOUWXCDP-UHFFFAOYSA-N,,,,Identification(12); Physical Data(2); Spectra(1),7.0,12.0,130 - 131,,,,,,Article; Hoagland; Frear; Journal of Agricultural and Food Chemistry; vol. 24; (1976); p. 129;,https://www.reaxys.com/reaxys/secured/hopinto.do?context=C&query=CNR.CNR%3D4214600&database=RX&origin=ReaxysOutput&ln=
,CC(NO)C#N,1699963.0,https://www.reaxys.com/reaxys/secured/hopinto.do?context=S&query=IDE.XRN%3D1699963&database=RX&origin=ReaxysOutput&ln=,(1439 of 4000),6783-69-3,2-(hydroxyamino)propanenitrile; 2-Hydroxyxaminopropionitril; α-Hydroxyamino-propionitril; 2-Hydroxylamino-propionitril; N-hydroxy-alanine nitrile; α-Hydroxylamino-propionsaeure-nitril; N-Hydroxy-alanin-nitril; 2-Hydroxylamino-propannitril,C3H6N2O,C3H6N2O,86.0934,acyclic,,LXELVHOOVYNEBZ-UHFFFAOYSA-N,,,,Identification(9); Physical Data(3); Spectra(4),11.0,9.0,97,,,,,,"Article; Taillades, Jacques; Bulletin de la Societe Chimique de France; vol. 133; 1; (1996); p. 89 - 100;",https://www.reaxys.com/reaxys/secured/hopinto.do?context=C&query=CNR.CNR%3D6003304&database=RX&origin=ReaxysOutput&ln=
,C\C=N\C(N)=O,1811688.0,https://www.reaxys.com/reaxys/secured/hopinto.do?context=S&query=IDE.XRN%3D1811688&database=RX&origin=ReaxysOutput&ln=,(1440 of 4000),33367-96-3,ethyliden-urea; Aethyliden-harnstoff; Monoaethylidenharnstoff,C3H6N2O,C3H6N2O,86.0934,acyclic,,AWMNXQXKGOSXDN-GORDUTHDSA-N,,,,Identification(8); Physical Data(3),4.0,4.0,154,,,Decomp.at:160 degreeC.,,,Article; Schiff; Justus Liebigs Annalen der Chemie; vol. 151; (1869); p. 203; Chemische Berichte; vol. 15; (1882); p. 1393;,https://www.reaxys.com/reaxys/secured/hopinto.do?context=C&query=CNR.CNR%3D1461157&database=RX&origin=ReaxysOutput&ln=
,N\C=C\C(N)=O,1920629.0,https://www.reaxys.com/reaxys/secured/hopinto.do?context=S&query=IDE.XRN%3D1920629&database=RX&origin=ReaxysOutput&ln=,(1441 of 4000),74043-27-9,β-Aminocrotonamid; 3-aminoacrylamide,C3H6N2O,C3H6N2O,86.0934,acyclic,,QHAKAGPSCONBON-OWOJBTEDSA-N,,,,Identification(5); Physical Data(1),2.0,2.0,100 - 101,,,,,,Patent; Kato; Shibata; JP6802686; (1966); Chem.Abstr.; vol. 69; 105938q; (1968); Chem.Abstr.; vol. 69; 105938q; (1968);,https://www.reaxys.com/reaxys/secured/hopinto.do?context=C&query=CNR.CNR%3D4069540&database=RX&origin=ReaxysOutput&ln=
,NN1CCC1=O,4242596.0,https://www.reaxys.com/reaxys/secured/hopinto.do?context=S&query=IDE.XRN%3D4242596&database=RX&origin=ReaxysOutput&ln=,(1442 of 4000),130065-29-1,1-Aminoazetidin-2-one; amino-azetidinone,C3H6N2O,C3H6N2O,86.0934,heterocyclic,,JTFLUJJESVAQGM-UHFFFAOYSA-N,,,,Identification(12); Physical Data(1); Spectra(4),3.0,7.0,92 - 93.5,diethyl ether,,,,,"Article; Perri, Steven T.; Slater, Stacey C.; Toske, Steven G.; White, James D.; Journal of Organic Chemistry; vol. 55; 24; (1990); p. 6037 - 6047;",https://www.reaxys.com/reaxys/secured/hopinto.do?context=C&query=CNR.CNR%3D5531892&database=RX&origin=ReaxysOutput&ln=
,NC(CO)C#N,4290760.0,https://www.reaxys.com/reaxys/secured/hopinto.do?context=S&query=IDE.XRN%3D4290760&database=RX&origin=ReaxysOutput&ln=,(1443 of 4000),125310-61-4,2-amino-3-hydroxypropionitrile,C3H6N2O,C3H6N2O,86.0934,acyclic,,BOYRGCUYTXBPQH-UHFFFAOYSA-N,,,,Identification(11); Physical Data(1); Spectra(6),7.0,10.0,58.5,ethyl acetate,,,,,"Article; Wagner, Ernst; Xiang, Yi-Bin; Baumann, Karl; Gueck, Juergen; Eschennmoser, Albert; Helvetica Chimica Acta; vol. 73; 5; (1990); p. 1391 - 1409;",https://www.reaxys.com/reaxys/secured/hopinto.do?context=C&query=CNR.CNR%3D5532254&database=RX&origin=ReaxysOutput&ln=
,N[C@H]1CNC1=O,5241052.0,https://www.reaxys.com/reaxys/secured/hopinto.do?context=S&query=IDE.XRN%3D5241052&database=RX&origin=ReaxysOutput&ln=,(1444 of 4000),80582-10-1,(S)-3-Amino-2-azetidinone; 3β-aminoazetidin-2-one; (S)-3-aminoazetidin-2-one; (3S)-3-aminoazetidin-2-one,C3H6N2O,C3H6N2O,86.0934,heterocyclic,,GCBWDZYSLVSRRI-REOHCLBHSA-N,,,,Identification(8); Physical Data(2); Spectra(4),31.0,17.0,77 - 83,,,,,,Patent; PFAENDLER HANS RUDOLF; US4683303; (1987); A;,https://www.reaxys.com/reaxys/secured/hopinto.do?context=C&query=CNR.CNR%3D76240&database=RX&origin=ReaxysOutput&ln=
,NC(=O)[C@H]1CN1,7073027.0,https://www.reaxys.com/reaxys/secured/hopinto.do?context=S&query=IDE.XRN%3D7073027&database=RX&origin=ReaxysOutput&ln=,(1445 of 4000),,(R)-Aziridin-2-carbonsaeureamid; (R)-aziridine-2-carboxamide; (R)-leakadine,C3H6N2O,C3H6N2O,86.0934,heterocyclic,,LZRVAAYXGFWSDY-UWTATZPHSA-N,,,,Identification(7); Physical Data(8),5.0,2.0,153,methanol,,,,,"Article; Turks; Rijkure; Belyakov; Zicane; Kumpins; Bizdena; Meikas; Valkna; Chemistry of Heterocyclic Compounds; vol. 48; 6; (2012); p. 861 - 868; Khim. Geterotsikl. Soedin.; vol. 48; 6; (2012); p. 928 - 935,8;",https://www.reaxys.com/reaxys/secured/hopinto.do?context=C&query=CNR.CNR%3D35263818&database=RX&origin=ReaxysOutput&ln=
,NC(=N)C(N)=N,1743269.0,https://www.reaxys.com/reaxys/secured/hopinto.do?context=S&query=IDE.XRN%3D1743269&database=RX&origin=ReaxysOutput&ln=,(1446 of 4000),4013-33-6,Dicyandiamid; oxalic acid diamidine; oxalamidine; Oxalamidin,H2N(NH)CC(NH)NH2,C2H6N4,86.0964,acyclic,,RDJGIQPSSNMJPF-UHFFFAOYSA-N,,,,Identification(5); Physical Data(2),1.0,2.0,210,,,,,,Article; Kuhnert-Brandstaetter; Borka; Scientia Pharmaceutica; vol. 42; (1974); p. 52;,https://www.reaxys.com/reaxys/secured/hopinto.do?context=C&query=CNR.CNR%3D2512433&database=RX&origin=ReaxysOutput&ln=
,NN=CC=NN,2036965.0,https://www.reaxys.com/reaxys/secured/hopinto.do?context=S&query=IDE.XRN%3D2036965&database=RX&origin=ReaxysOutput&ln=,(1447 of 4000),3327-62-6,glyoxal bishydrazone,C2H6N4,C2H6N4,86.0964,acyclic,,YEIYMELXENLJSN-UHFFFAOYSA-N,,,,Identification(12); Physical Data(8); Spectra(11),14.0,28.0,97 - 100,,,,,,"Article; Gallucci, Robert R.; Journal of Chemical and Engineering Data; vol. 27; 2; (1982); p. 217 - 219;",https://www.reaxys.com/reaxys/secured/hopinto.do?context=C&query=CNR.CNR%3D5702368&database=RX&origin=ReaxysOutput&ln=
,[15NH2]C(=O)C1CC1,2243730.0,https://www.reaxys.com/reaxys/secured/hopinto.do?context=S&query=IDE.XRN%3D2243730&database=RX&origin=ReaxysOutput&ln=,(1448 of 4000),70908-44-0,,C4H7(15)NO,C4H7NO,86.099,isocyclic,,AIMMVWOEOZMVMS-HOSYLAQJSA-N,,,,Identification(5); Physical Data(1),2.0,1.0,122 - 125,,,,,,"Article; Kirmse,W. et al.; Chemische Berichte; vol. 112; (1979); p. 2120 - 2144;",https://www.reaxys.com/reaxys/secured/hopinto.do?context=C&query=CNR.CNR%3D44121&database=RX&origin=ReaxysOutput&ln=
,S1C=NN=C1,104768.0,https://www.reaxys.com/reaxys/secured/hopinto.do?context=S&query=IDE.XRN%3D104768&database=RX&origin=ReaxysOutput&ln=,(1449 of 4000),289-06-5,"1,3,4-thiadiazole; 1,3,4-Thiadiazol",C2H2N2S,C2H2N2S,86.1173,heterocyclic,,MBIZXFATKUQOOA-UHFFFAOYSA-N,,,,Identification(816); Physical Data(29); Spectra(28); Bioactivity(41),28.0,805.0,41.6,diethyl ether; petroleum ether,,,,,"Article; Rasmussen, P.B.; Pedersen, U.; Thomsen, I.; Yde, B.; Lawesson, S.O.; Bulletin de la Societe Chimique de France; 1; (1985); p. 62 - 65;",https://www.reaxys.com/reaxys/secured/hopinto.do?context=C&query=CNR.CNR%3D5672293&database=RX&origin=ReaxysOutput&ln=
,S1C=CN=N1,104769.0,https://www.reaxys.com/reaxys/secured/hopinto.do?context=S&query=IDE.XRN%3D104769&database=RX&origin=ReaxysOutput&ln=,(1450 of 4000),288-48-2,"1,2,3-thiadiazole; thiadiazole",C2H2N2S,C2H2N2S,86.1173,heterocyclic,,UGUHFDPGDQDVGX-UHFFFAOYSA-N,,,,Identification(1429); Physical Data(14); Spectra(32),38.0,1453.0,-14,,,,,,"Article; Raap,R.; Micetich,R.G.; Canadian Journal of Chemistry; vol. 46; (1968); p. 1057 - 1063;",https://www.reaxys.com/reaxys/secured/hopinto.do?context=C&query=CNR.CNR%3D24994&database=RX&origin=ReaxysOutput&ln=
,S1C=NC=N1,104770.0,https://www.reaxys.com/reaxys/secured/hopinto.do?context=S&query=IDE.XRN%3D104770&database=RX&origin=ReaxysOutput&ln=,(1451 of 4000),288-92-6,"1,2,4-thiadiazole; [1,2,4]Thiadiazol",C2H2N2S,C2H2N2S,86.1173,heterocyclic,,YGTAZGSLCXNBQL-UHFFFAOYSA-N,,,,Identification(191); Physical Data(10); Spectra(20),5.0,195.0,-35 - -33,,,,,,"Article; Goerdeler et al.; Chemische Berichte; vol. 89; (1956); p. 1534,1540;; ; Article; Zahradnik; Kontecky; Collection of Czechoslovak Chemical Communications; vol. 26; (1961); p. 156,157, 161;",https://www.reaxys.com/reaxys/secured/hopinto.do?context=C&query=CNR.CNR%3D785263&database=RX&origin=ReaxysOutput&ln=
,S1N=CC=N1,605622.0,https://www.reaxys.com/reaxys/secured/hopinto.do?context=S&query=IDE.XRN%3D605622&database=RX&origin=ReaxysOutput&ln=,(1452 of 4000),288-39-1; 23091-39-6,"1,2,5-thiadiazole; 1,2,5-Thiadiazol; 2,1,3-Thiadiazol",H2C2N2S,C2H2N2S,86.1173,heterocyclic,,UDGKZGLPXCRRAM-UHFFFAOYSA-N,,,,Identification(234); Physical Data(33); Spectra(37),34.0,268.0,-50,,,,,,Article; Bertini; Gazzetta Chimica Italiana; vol. 97; (1967); p. 1870;,https://www.reaxys.com/reaxys/secured/hopinto.do?context=C&query=CNR.CNR%3D3572518&database=RX&origin=ReaxysOutput&ln=
,NC(=S)C#N,1699396.0,https://www.reaxys.com/reaxys/secured/hopinto.do?context=S&query=IDE.XRN%3D1699396&database=RX&origin=ReaxysOutput&ln=,(1453 of 4000),471-24-9,Cyanthioformamid,NCC(S)NH2,C2H2N2S,86.1173,acyclic,,TYTIZKNBXNGILL-UHFFFAOYSA-N,,,,Identification(10); Physical Data(6); Spectra(4),15.0,14.0,87 - 91,CHCl3,,,,,"Article; Duckworth; Werner; Australian Journal of Chemistry; vol. 18; (1965); p. 129,130, 132;",https://www.reaxys.com/reaxys/secured/hopinto.do?context=C&query=CNR.CNR%3D3899624&database=RX&origin=ReaxysOutput&ln=
,C1CCOCC1,102436.0,https://www.reaxys.com/reaxys/secured/hopinto.do?context=S&query=IDE.XRN%3D102436&database=RX&origin=ReaxysOutput&ln=,(1455 of 4000),142-68-7,Oxane; TETRAHYDROPYRANE,OC5H10,C5H10O,86.1338,heterocyclic,,DHXVGJBLRPWPCS-UHFFFAOYSA-N,,,,Identification(5097); Physical Data(638); Spectra(81); Bioactivity(297),1362.0,5902.0,-49.2,,,,,,"Article; Langer, Jens; Koehler, Mathias; Fischer, Reinald; Duendar, Feyza; Goerls, Helmar; Westerhausen, Matthias; Organometallics; vol. 31; 17; (2012); p. 6172 - 6182;",https://www.reaxys.com/reaxys/secured/hopinto.do?context=C&query=CNR.CNR%3D20198609&database=RX&origin=ReaxysOutput&ln=
,CC1CCCO1,102448.0,https://www.reaxys.com/reaxys/secured/hopinto.do?context=S&query=IDE.XRN%3D102448&database=RX&origin=ReaxysOutput&ln=,(1456 of 4000),96-47-9,2-methyltetrahydrofuran,C4OH7(CH3),C5H10O,86.1338,heterocyclic,,JWUJQDFVADABEY-UHFFFAOYSA-N,,,,Identification(485); Physical Data(274); Spectra(95); Bioactivity(82),828.0,1245.0,-136.16,,,,,,"Article; Aldred, Matthew P.; Zhang, Guo-Feng; Li, Chong; Chen, Gui; Chen, Tao; Zhu, Ming-Qiang; Journal of Materials Chemistry C; vol. 1; 40; (2013); p. 6709 - 6718;",https://www.reaxys.com/reaxys/secured/hopinto.do?context=C&query=CNR.CNR%3D61476411&database=RX&origin=ReaxysOutput&ln=
,CCCC(C)=O,506058.0,https://www.reaxys.com/reaxys/secured/hopinto.do?context=S&query=IDE.XRN%3D506058&database=RX&origin=ReaxysOutput&ln=,(1457 of 4000),107-87-9,2-Pentanone; pentanone-2,C3H7C(O)CH3,C5H10O,86.1338,acyclic,,XNLICIUVMPYHGG-UHFFFAOYSA-N,,,,Identification(3461); Physical Data(704); Spectra(179); Bioactivity(362),3709.0,6352.0,-77.15,,,,,,"Article; Tanganov, B. B.; Baldanov, M. M.; Mokhosoev, M. V.; Russian Journal of Physical Chemistry; vol. 66; 6; (1992); p. 786 - 789; Zhurnal Fizicheskoi Khimii; vol. 66; (1992); p. 1476 - 1480;",https://www.reaxys.com/reaxys/secured/hopinto.do?context=C&query=CNR.CNR%3D5718322&database=RX&origin=ReaxysOutput&ln=
,CC(C)(C)C=O,506060.0,https://www.reaxys.com/reaxys/secured/hopinto.do?context=S&query=IDE.XRN%3D506060&database=RX&origin=ReaxysOutput&ln=,(1458 of 4000),630-19-3,"pivalaldehyde; 2,2-dimethypropanal",(C4H9)COH,C5H10O,86.1338,acyclic,,FJJYHTVHBVXEEQ-UHFFFAOYSA-N,,,,Identification(515); Physical Data(103); Spectra(78); Bioactivity(287),13037.0,5715.0,-1.05,,,,,,"Article; White, Mary Anne; Perrott, Allyson; Canadian Journal of Chemistry; vol. 66; (1988); p. 729 - 733;",https://www.reaxys.com/reaxys/secured/hopinto.do?context=C&query=CNR.CNR%3D5727247&database=RX&origin=ReaxysOutput&ln=
,CCC(=O)CC,635749.0,https://www.reaxys.com/reaxys/secured/hopinto.do?context=S&query=IDE.XRN%3D635749&database=RX&origin=ReaxysOutput&ln=,(1459 of 4000),96-22-0,pentan-3-one; Diethyl ketone; pentan-2-one; 3-Pentanone,OC(CH2CH3)2,C5H10O,86.1338,acyclic,,FDPIMTJIUBPUKL-UHFFFAOYSA-N,,,,Identification(578); Physical Data(669); Spectra(195); Bioactivity(298),8534.0,5683.0,-39,,Page/Page column 58,,,,Patent; AICURIS GMBH &amp; CO. KG; WO2018/96177; (2018); A1;,https://www.reaxys.com/reaxys/secured/hopinto.do?context=C&query=CNR.CNR%3D73982778&database=RX&origin=ReaxysOutput&ln=
,CC(C)=CCO,741871.0,https://www.reaxys.com/reaxys/secured/hopinto.do?context=S&query=IDE.XRN%3D741871&database=RX&origin=ReaxysOutput&ln=,(1460 of 4000),556-82-1,3-methyl-2-buten-1-ol,HOCH2CHC(CH3)2,C5H10O,86.1338,acyclic,,ASUAYTHWZCLXAN-UHFFFAOYSA-N,,,,Identification(760); Physical Data(121); Spectra(37); Bioactivity(126),3447.0,2211.0,69,,,,,,"Article; Banthrope et al.; Phytochemistry; vol. 16; (1977); p. 85,90, 91;",https://www.reaxys.com/reaxys/secured/hopinto.do?context=C&query=CNR.CNR%3D3933251&database=RX&origin=ReaxysOutput&ln=
,CC(C)C(C)=O,1071238.0,https://www.reaxys.com/reaxys/secured/hopinto.do?context=S&query=IDE.XRN%3D1071238&database=RX&origin=ReaxysOutput&ln=,(1461 of 4000),563-80-4,3-methyl-butan-2-one; 2-methylbutan-3-one,CH3C(O)CH(CH3)2,C5H10O,86.1338,acyclic,,SYBYTAAJFKOIEJ-UHFFFAOYSA-N,,,,Identification(968); Physical Data(291); Spectra(106); Bioactivity(205),6841.0,3958.0,112,,,,,,"Article; Braun,M.; Seebach,D.; Chemische Berichte; vol. 109; (1976); p. 669 - 691;",https://www.reaxys.com/reaxys/secured/hopinto.do?context=C&query=CNR.CNR%3D42830&database=RX&origin=ReaxysOutput&ln=
,CCCCC=O,1616304.0,https://www.reaxys.com/reaxys/secured/hopinto.do?context=S&query=IDE.XRN%3D1616304&database=RX&origin=ReaxysOutput&ln=,(1462 of 4000),110-62-3,pentanal; n-pentanaldehyde,(C4H9)CHO,C5H10O,86.1338,acyclic,,HGBOYTHUEUWSSQ-UHFFFAOYSA-N,,,,Identification(4231); Physical Data(191); Spectra(79); Bioactivity(500),8814.0,8597.0,-91.5,,,,,,Article; Simon; Bulletin des Societes Chimiques Belges; vol. 38; (1929); p. 50; Chemisches Zentralblatt; vol. 100; I; (1929); p. 2520;,https://www.reaxys.com/reaxys/secured/hopinto.do?context=C&query=CNR.CNR%3D1133897&database=RX&origin=ReaxysOutput&ln=
,CC(C)(O)C=C,1698263.0,https://www.reaxys.com/reaxys/secured/hopinto.do?context=S&query=IDE.XRN%3D1698263&database=RX&origin=ReaxysOutput&ln=,(1463 of 4000),115-18-4,2-methyl-3-buten-2-ol,HOC(CH3)2CHCH2,C5H10O,86.1338,acyclic,,HNVRRHSXBLFLIG-UHFFFAOYSA-N,,,,Identification(837); Physical Data(121); Spectra(44); Bioactivity(104),2576.0,1936.0,-28,,,,,,"Article; Craig et al.; Journal of Organic Chemistry; vol. 24; (1959); p. 240,241;",https://www.reaxys.com/reaxys/secured/hopinto.do?context=C&query=CNR.CNR%3D1421093&database=RX&origin=ReaxysOutput&ln=
,[H][C@](C)(O)CC=C,1719480.0,https://www.reaxys.com/reaxys/secured/hopinto.do?context=S&query=IDE.XRN%3D1719480&database=RX&origin=ReaxysOutput&ln=,(1464 of 4000),64584-92-5,(R)-pent-4-en-2-ol; (R)-4-penten-2-ol; (R)-(+)-propylene oxide; 4-penten-2-ol; (2R)-pent-4-en-2-ol,CH3CH(OH)CH2CHCH2,C5H10O,86.1338,acyclic,,ZHZCYWWNFQUZOR-RXMQYKEDSA-N,,,,Identification(54); Physical Data(24); Spectra(18),590.0,137.0,60,petroleum ether; various solvent(s),,,,,"Article; Tietze, Lutz F.; Schiemann, Kai; Wegner, Christoph; Journal of the American Chemical Society; vol. 117; 21; (1995); p. 5851 - 5852;",https://www.reaxys.com/reaxys/secured/hopinto.do?context=C&query=CNR.CNR%3D5971843&database=RX&origin=ReaxysOutput&ln=
,CC=CC(C)O,1719837.0,https://www.reaxys.com/reaxys/secured/hopinto.do?context=S&query=IDE.XRN%3D1719837&database=RX&origin=ReaxysOutput&ln=,(1465 of 4000),1569-50-2,3-penten-2-ol; pent-3-en-2-ol; methyl-3-buten-2-ol,CH3CHCHCH(OH)CH3,C5H10O,86.1338,acyclic,,GJYMQFMQRRNLCY-UHFFFAOYSA-N,,,,Identification(34); Physical Data(44); Spectra(15); Bioactivity(10),143.0,155.0,121 - 122,,,,,,Article; Aleksandrova et al.; Journal of Organic Chemistry USSR (English Translation); vol. 9; (1973); p. 778; Zhurnal Organicheskoi Khimii; vol. 9; (1973); p. 756;,https://www.reaxys.com/reaxys/secured/hopinto.do?context=C&query=CNR.CNR%3D4124989&database=RX&origin=ReaxysOutput&ln=
,COC(C)=CC,1733990.0,https://www.reaxys.com/reaxys/secured/hopinto.do?context=S&query=IDE.XRN%3D1733990&database=RX&origin=ReaxysOutput&ln=,(1466 of 4000),6380-95-6,1-methyl-1-propenyl methyl ether; 2-Methoxy-but-2-en; 2-Methoxy-2-buten; 2-Methoxy-buten-(2); 2-methoxy-but-2-ene; Buten-(2)-ol-(2)-methylaether; methyl sec-butenyl ether,C5H10O,C5H10O,86.1338,acyclic,,JWBPCSXRWORRAI-UHFFFAOYSA-N,,,,Identification(9); Physical Data(9),19.0,12.0,65 - 67,,,,,,Patent; Francesco Vismara Soc. per Azioni; BE628804; (1963); A; Chem.Abstr.; vol. 60; 13302; Chem.Abstr.; vol. 60; 13302;,https://www.reaxys.com/reaxys/secured/hopinto.do?context=C&query=CNR.CNR%3D4082739&database=RX&origin=ReaxysOutput&ln=