Structure: Image,SMILES,Substance Identification: Reaxys Registry Number,Links to Reaxys,Data Count,CAS Registry Number,Chemical Name,Linear Structure Formula,Molecular Formula,Molecular Weight,Type of Substance,Type and Modification,InChI Key,Composition: Comp. Name,Composition: Comp. Conc.,Composition: Comp. Attrib.,Field Availability,Number of Reactions,Number of References,Melting Point: Melting Point [C],Solvent (Melting Point),Location,Comment (Melting Point),Crystallizes With,Amount (Melting Point) [mol],References,Links to Reaxys.1
,CC=N(O)=O,1848014.0,https://www.reaxys.com/reaxys/secured/hopinto.do?context=S&query=IDE.XRN%3D1848014&database=RX&origin=ReaxysOutput&ln=,(764 of 4000),4202-72-6; 145998-50-1; 145998-51-2,acetohydroxamic acid; nitroethane; aci-Nitro-ethan; aci-nitro-ethane; aci-Nitro-aethan; Isonitro-aethan,C2H5NO2,C2H5NO2,75.0672,acyclic,,CPZLOQHKKRZRSD-UHFFFAOYSA-N,,,,Identification(10); Physical Data(6),10.0,14.0,60 - 70,,,Decomp.,,,Article; Pearson; Dillon; Journal of the American Chemical Society; vol. 72; (1950); p. 3574;,https://www.reaxys.com/reaxys/secured/hopinto.do?context=C&query=CNR.CNR%3D1393324&database=RX&origin=ReaxysOutput&ln=
,OCCN=O,5490714.0,https://www.reaxys.com/reaxys/secured/hopinto.do?context=S&query=IDE.XRN%3D5490714&database=RX&origin=ReaxysOutput&ln=,(765 of 4000),93682-11-2,β-nitroso-ethanol; 2-nitrosoethanol,C2H5NO2,C2H5NO2,75.0672,acyclic,,GANMTNJMVXKHNT-UHFFFAOYSA-N,,,,Identification(10); Physical Data(2); Spectra(6),3.0,7.0,30 - 31,,,,,,"Article; Ozaki, Shigeko; Nishiguchi, Susumu; Masui, Masaichiro; Chemical and pharmaceutical bulletin; vol. 32; 7; (1984); p. 2609 - 2616;",https://www.reaxys.com/reaxys/secured/hopinto.do?context=C&query=CNR.CNR%3D5679203&database=RX&origin=ReaxysOutput&ln=
,CCO[13CH]=O,1903723.0,https://www.reaxys.com/reaxys/secured/hopinto.do?context=S&query=IDE.XRN%3D1903723&database=RX&origin=ReaxysOutput&ln=,(766 of 4000),73222-61-4,ethyl [13C]formate; ethyl <13C>formate,C2(13)CH6O2,C3H6O2,75.0684,acyclic,,WBJINCZRORDGAQ-LBPDFUHNSA-N,,,,Identification(7); Physical Data(2); Spectra(6),28.0,21.0,-80,,,,,,"Article; Crow; Paddon-Row; Australian Journal of Chemistry; vol. 26; (1973); p. 1705,1713,1714,1715,1722;",https://www.reaxys.com/reaxys/secured/hopinto.do?context=C&query=CNR.CNR%3D2870056&database=RX&origin=ReaxysOutput&ln=
,NNC(N)=O,506319.0,https://www.reaxys.com/reaxys/secured/hopinto.do?context=S&query=IDE.XRN%3D506319&database=RX&origin=ReaxysOutput&ln=,(767 of 4000),4426-72-6; 51433-48-8,hydrazine carboxamide; semicarbazid,NH2CONHNH2,CH5N3O,75.0702,acyclic,,DUIOPKIIICUYRZ-UHFFFAOYSA-N,,,,Identification(21077); Physical Data(111); Spectra(13); Bioactivity(1260),3258.0,23098.0,118,,,,,,"Article; Mali, S.L.; Kabra, B.V.; Pitliya, R.L.; Vaidya, V.K.; Ameta, S.C.; Journal of the Indian Chemical Society; vol. 70; 8; (1993); p. 723 - 724;",https://www.reaxys.com/reaxys/secured/hopinto.do?context=C&query=CNR.CNR%3D5961477&database=RX&origin=ReaxysOutput&ln=
,CN(N)N=O,1741917.0,https://www.reaxys.com/reaxys/secured/hopinto.do?context=S&query=IDE.XRN%3D1741917&database=RX&origin=ReaxysOutput&ln=,(768 of 4000),758-19-0,N-Methyl-N-nitroso-hydrazin; N1-Nitroso-N1-methyl-hydrazin; N-Nitroso-N-methyl-hydrazin; N-nitroso-N-methylhydrazine; N-methyl-N-nitroso-hydrazine,CH3N(NO)NH2,CH5N3O,75.0702,acyclic,,PCBDWVMWPMTFHX-UHFFFAOYSA-N,,,,Identification(6); Physical Data(4); Spectra(1),13.0,8.0,44 - 45,,,,,,"Article; Pedersen,C.T.; Acta Chemica Scandinavica (1947); vol. 18; (1964); p. 2199 - 2200;",https://www.reaxys.com/reaxys/secured/hopinto.do?context=C&query=CNR.CNR%3D96799&database=RX&origin=ReaxysOutput&ln=
,NC(N)=NO,1920232.0,https://www.reaxys.com/reaxys/secured/hopinto.do?context=S&query=IDE.XRN%3D1920232&database=RX&origin=ReaxysOutput&ln=,(769 of 4000),13115-21-4,N-Hydroxyguanidine; hydroxyguanidine,CH5N3O,CH5N3O,75.0702,acyclic,,WFBHRSAKANVBKH-UHFFFAOYSA-N,,,,Identification(12); Physical Data(3); Spectra(2); Bioactivity(4),16.0,18.0,104 - 105,ethanol,,,,,"Article; Belzecki,C. et al.; Bulletin de l'Academie Polonaise des Sciences, Serie des Sciences Chimiques; vol. 18; (1970); p. 573 - 576;",https://www.reaxys.com/reaxys/secured/hopinto.do?context=C&query=CNR.CNR%3D241147&database=RX&origin=ReaxysOutput&ln=
,[N-]=[N+]=[N-].[H]N([H])[N+]([H])([H])[H],16818599.0,https://www.reaxys.com/reaxys/secured/hopinto.do?context=S&query=IDE.XRN%3D16818599&database=RX&origin=ReaxysOutput&ln=,(770 of 4000),,hydrazinium azide; hydrazine azide,N2H5(1+)*N3(1-)=N2H5N3,H5N2*N3,75.0732,,,UZXHZRFWCCZBDW-UHFFFAOYSA-O,,,,Identification(10); Physical Data(20); Spectra(3),9.0,20.0,75,,,,,,"Article; Rubtsov, Yu. I.; Manelis, G. B.; Bulletin of the Academy of Sciences of the USSR Division of Chemical Science; vol. 33; (1984); p. 260 - 263; Bull. Acad. Sci. USSR, Div. Chem. Sci. (Engl. Transl.); vol. 33; (1984); p. 296 - 299; (from Gmelin)",https://www.reaxys.com/reaxys/secured/hopinto.do?context=C&query=CNR.CNR%3D7870273&database=RX&origin=ReaxysOutput&ln=
,CNC([15NH2])=O,6591429.0,https://www.reaxys.com/reaxys/secured/hopinto.do?context=S&query=IDE.XRN%3D6591429&database=RX&origin=ReaxysOutput&ln=,(771 of 4000),,<15NH2>N-methylurea; 1-methyl(3-15N)harnstoff,C2H6N(15)NO,C2H6N2O,75.0757,acyclic,,XGEGHDBEHXKFPX-LBPDFUHNSA-N,,,,Identification(5); Physical Data(1); Spectra(2),2.0,2.0,98 - 100,,,,,,"Article; Schlaepfer-Daehler, Marlise; Heimgartner, Heinz; Helvetica Chimica Acta; vol. 76; 6; (1993); p. 2321 - 2328;",https://www.reaxys.com/reaxys/secured/hopinto.do?context=C&query=CNR.CNR%3D5842835&database=RX&origin=ReaxysOutput&ln=
,C[14C](C)=NO,2426077.0,https://www.reaxys.com/reaxys/secured/hopinto.do?context=S&query=IDE.XRN%3D2426077&database=RX&origin=ReaxysOutput&ln=,(772 of 4000),58670-85-2,Aceton-2-14C-oxim; [2-14C]propan-2-one oxime,C2(14)CH7NO,C3H7NO,75.0837,acyclic,,PXAJQJMDEXJWFB-YZRHJBSPSA-N,,,,Identification(6); Physical Data(1),1.0,1.0,59 - 60,,,,,,"Article; Colombini et al.; Journal of Labelled Compounds; vol. 1; (1965); p. 195,197;",https://www.reaxys.com/reaxys/secured/hopinto.do?context=C&query=CNR.CNR%3D4543582&database=RX&origin=ReaxysOutput&ln=
,CC(C)NO,605272.0,https://www.reaxys.com/reaxys/secured/hopinto.do?context=S&query=IDE.XRN%3D605272&database=RX&origin=ReaxysOutput&ln=,(773 of 4000),5080-22-8,N-isopropylhydroxyamine; N-isopropylhydroxylamine; N-(2-propyl)-hydroxylamine,(CH3)2CHNHOH,C3H9NO,75.1106,acyclic,,ODHYIQOBTIWVRZ-UHFFFAOYSA-N,,,,Identification(38); Physical Data(11); Spectra(5); Bioactivity(8),182.0,130.0,84 - 86,pentane,,,,,Article; Feuer; Braunstein; Journal of Organic Chemistry; vol. 34; 6; (1969); p. 2024;,https://www.reaxys.com/reaxys/secured/hopinto.do?context=C&query=CNR.CNR%3D5190689&database=RX&origin=ReaxysOutput&ln=
,CC(O)CN,605275.0,https://www.reaxys.com/reaxys/secured/hopinto.do?context=S&query=IDE.XRN%3D605275&database=RX&origin=ReaxysOutput&ln=,(774 of 4000),78-96-6; 1674-56-2,3-amino-2-propanol; 1-Amino-2-propanol,H2NC3H6OH,C3H9NO,75.1106,acyclic,,HXKKHQJGJAFBHI-UHFFFAOYSA-N,,,,Identification(635); Physical Data(209); Spectra(27); Bioactivity(104),1399.0,1768.0,1.4,,,,,,"Article; Gupta, Pankaj; Rouf, Abdul; Shah, Bhahwal A.; Mukherjee, Debaraj; Taneja, Subhash C.; Synthetic Communications; vol. 43; 4; (2013); p. 505 - 519;",https://www.reaxys.com/reaxys/secured/hopinto.do?context=C&query=CNR.CNR%3D35392081&database=RX&origin=ReaxysOutput&ln=
,COCCN,741854.0,https://www.reaxys.com/reaxys/secured/hopinto.do?context=S&query=IDE.XRN%3D741854&database=RX&origin=ReaxysOutput&ln=,(775 of 4000),109-85-3,2-methoxyethylamine; 2-methoxyethanamine,NH2(CH2)2OCH3,C3H9NO,75.1106,acyclic,,ASUDFOJKTJLAIK-UHFFFAOYSA-N,,,,Identification(400); Physical Data(100); Spectra(17); Bioactivity(160),4184.0,3145.0,106 - 109,,,,,,Patent; UNIVERSITY OF DELAWARE; UNIVERSITY PATENTS; US4617389; (1986); A;,https://www.reaxys.com/reaxys/secured/hopinto.do?context=C&query=CNR.CNR%3D7111009&database=RX&origin=ReaxysOutput&ln=
,NCCCO,741855.0,https://www.reaxys.com/reaxys/secured/hopinto.do?context=S&query=IDE.XRN%3D741855&database=RX&origin=ReaxysOutput&ln=,(776 of 4000),156-87-6,3-amino-1-propanol; propan-1-ol-3-amine; 3-Aminopropanol,OH(CH2)3NH2,C3H9NO,75.1106,acyclic,,WUGQZFFCHPXWKQ-UHFFFAOYSA-N,,,,Identification(857); Physical Data(186); Spectra(45); Bioactivity(235),4667.0,4386.0,12,,,,,,"Article; Solonina; Rodnikova; Kiselev; Khoroshilov; Russian Journal of Physical Chemistry; vol. 89; 5; (2015); p. 910 - 913; Zh. Fiz. Khim.; vol. 89; 5; (2015); p. 882 - 885,4;",https://www.reaxys.com/reaxys/secured/hopinto.do?context=C&query=CNR.CNR%3D66091096&database=RX&origin=ReaxysOutput&ln=
,CNCCO,1071196.0,https://www.reaxys.com/reaxys/secured/hopinto.do?context=S&query=IDE.XRN%3D1071196&database=RX&origin=ReaxysOutput&ln=,(777 of 4000),109-83-1,(2-hydroxyethyl)(methyl)amine; 2-(methylamino)ethanol,HNCH3(CH2CH2OH),C3H9NO,75.1106,acyclic,,OPKOKAMJFNKNAS-UHFFFAOYSA-N,,,,Identification(639); Physical Data(175); Spectra(49); Bioactivity(142),2660.0,2677.0,170,,,,,,"Article; Adger, B. M.; O'Farrell, C.; Lewis, N. J.; Mitchell, M. B.; Synthesis; 1; (1987); p. 53 - 55;",https://www.reaxys.com/reaxys/secured/hopinto.do?context=C&query=CNR.CNR%3D5642516&database=RX&origin=ReaxysOutput&ln=
,CC(N)CO,1209234.0,https://www.reaxys.com/reaxys/secured/hopinto.do?context=S&query=IDE.XRN%3D1209234&database=RX&origin=ReaxysOutput&ln=,(778 of 4000),6168-72-5,"2-Amino-1-propanol; D,L-alaninol",HOCH2CH(CH3)NH2,C3H9NO,75.1106,acyclic,,BKMMTJMQCTUHRP-UHFFFAOYSA-N,,,,Identification(408); Physical Data(37); Spectra(15); Bioactivity(58),805.0,1018.0,94 - 95,,,,,,Patent; BAYER AG; DE2701215; (1978); A1; Chem.Abstr.; vol. 89; 179990; Chem.Abstr.; vol. 89; 179990;,https://www.reaxys.com/reaxys/secured/hopinto.do?context=C&query=CNR.CNR%3D3027316&database=RX&origin=ReaxysOutput&ln=
,CCC(N)O,1697024.0,https://www.reaxys.com/reaxys/secured/hopinto.do?context=S&query=IDE.XRN%3D1697024&database=RX&origin=ReaxysOutput&ln=,(779 of 4000),40898-94-0,1-aminopropanol; propanolamine; 1-amino-propan-1-ol; 2S-amino-1-propanol,C3H9NO,C3H9NO,75.1106,acyclic,,MXZROAOUCUVNHX-UHFFFAOYSA-N,,,,Identification(147); Physical Data(1); Spectra(1),21.0,154.0,15 - 18,,,Crystallization with 3 Mol(s) H2O,,,"Article; Nielsen,A.T. et al.; Journal of Organic Chemistry; vol. 38; (1973); p. 3288 - 3295;",https://www.reaxys.com/reaxys/secured/hopinto.do?context=C&query=CNR.CNR%3D188381&database=RX&origin=ReaxysOutput&ln=
,[H][C@@](C)(N)CO,1718865.0,https://www.reaxys.com/reaxys/secured/hopinto.do?context=S&query=IDE.XRN%3D1718865&database=RX&origin=ReaxysOutput&ln=,(780 of 4000),2749-11-3,(S)-Alaninol,OHCH2CHNH2CH3,C3H9NO,75.1106,acyclic,,BKMMTJMQCTUHRP-VKHMYHEASA-N,,,,Identification(256); Physical Data(164); Spectra(30); Bioactivity(60),1088.0,1122.0,104 - 108,,,,,,Patent; BAYER AG; US4839355; (1989); A;,https://www.reaxys.com/reaxys/secured/hopinto.do?context=C&query=CNR.CNR%3D7106478&database=RX&origin=ReaxysOutput&ln=
,CC(C)ON,1731092.0,https://www.reaxys.com/reaxys/secured/hopinto.do?context=S&query=IDE.XRN%3D1731092&database=RX&origin=ReaxysOutput&ln=,(781 of 4000),4427-29-6,isopropoxyamine; O-isopropyl hydroxylamine,C3H9NO,C3H9NO,75.1106,acyclic,,HLYVNXRHROOICH-UHFFFAOYSA-N,,,,Identification(17); Physical Data(18); Spectra(2),57.0,55.0,159 - 161,,,,,,Patent; PFIZER INC; US6436929; (2002); B1;; ; Patent; LIGAND PHARMACEUTICALS INC; US6444668; (2002); B1;; ; Patent; PFIZER INC; US2002/49204; (2002); A1;,https://www.reaxys.com/reaxys/secured/hopinto.do?context=C&query=CNR.CNR%3D199717&database=RX&origin=ReaxysOutput&ln=
,CON(C)C,1731118.0,https://www.reaxys.com/reaxys/secured/hopinto.do?context=S&query=IDE.XRN%3D1731118&database=RX&origin=ReaxysOutput&ln=,(782 of 4000),5669-39-6,"N,N,O-trimethylhydroxylamine",(CH3O)(CH3)2N,C3H9NO,75.1106,acyclic,,QVDVENIYNXDSOK-UHFFFAOYSA-N,,,,Identification(10); Physical Data(12); Spectra(4),13.0,21.0,-97.2,,,,,,"Article; Bissot et al.; Journal of the American Chemical Society; vol. 79; (1957); p. 796,799;",https://www.reaxys.com/reaxys/secured/hopinto.do?context=C&query=CNR.CNR%3D1275064&database=RX&origin=ReaxysOutput&ln=
,CCCNO,1731121.0,https://www.reaxys.com/reaxys/secured/hopinto.do?context=S&query=IDE.XRN%3D1731121&database=RX&origin=ReaxysOutput&ln=,(783 of 4000),627-38-3,N-propylhydroxylamine; N-(1-propyl)hydroxylamine,C3H7NHOH,C3H9NO,75.1106,acyclic,,OMXHKVKIKSASRV-UHFFFAOYSA-N,,,,Identification(20); Physical Data(5),42.0,42.0,42 - 43,pentane,,,,,Article; Feuer; Braunstein; Journal of Organic Chemistry; vol. 34; 6; (1969); p. 2024;,https://www.reaxys.com/reaxys/secured/hopinto.do?context=C&query=CNR.CNR%3D5190689&database=RX&origin=ReaxysOutput&ln=
,CN(C)(C)=O,1734787.0,https://www.reaxys.com/reaxys/secured/hopinto.do?context=S&query=IDE.XRN%3D1734787&database=RX&origin=ReaxysOutput&ln=,(784 of 4000),1184-78-7,trimethylamine-N-oxide; trimethylamine oxide; Me3NO,N(CH3)3O,C3H9NO,75.1106,acyclic,,UYPYRKYUKCHHIB-UHFFFAOYSA-N,,,,Identification(6119); Physical Data(184); Spectra(88); Bioactivity(421),1054.0,6715.0,79 - 83,,,,,,"Article; Chen, Fu-Xue; Liu, Xiaohua; Qin, Bo; Zhou, Hui; Feng, Xiaoming; Zhang, Guolin; Synthesis; 14; (2004); p. 2266 - 2272;",https://www.reaxys.com/reaxys/secured/hopinto.do?context=C&query=CNR.CNR%3D6512505&database=RX&origin=ReaxysOutput&ln=
,[H]N([H])[H].CC(C)=O,3667763.0,https://www.reaxys.com/reaxys/secured/hopinto.do?context=S&query=IDE.XRN%3D3667763&database=RX&origin=ReaxysOutput&ln=,(785 of 4000),,acetone; compound with ammonia; Aceton; Verbindung mit Ammoniak,C3H6O*H3N,C3H6O*H3N,75.1106,acyclic,,OSOHBQZPFDDOMK-UHFFFAOYSA-N,,,,Identification(13); Physical Data(1),,9.0,-41,,,,,,Article; Hock; Stuhlmann; Chemische Berichte; vol. 61; (1928); p. 471;,https://www.reaxys.com/reaxys/secured/hopinto.do?context=C&query=CNR.CNR%3D1326128&database=RX&origin=ReaxysOutput&ln=
,[2H]C(O)CCC,1719195.0,https://www.reaxys.com/reaxys/secured/hopinto.do?context=S&query=IDE.XRN%3D1719195&database=RX&origin=ReaxysOutput&ln=,(786 of 4000),4397-63-1,<1-D>-butanol; (1RS)-1-butanol-1-d; 1-Butanol-1-D; Butanol-(1)-1-d; rac.-1-Butanol-1d; 1-deuterio-butan-1-ol,C4H9DO,C4H10O,75.1149,acyclic,,LRHPLDYGYMQRHN-QYKNYGDISA-N,,,,Identification(6); Physical Data(11); Spectra(7),17.0,18.0,74 - 75,,,,,,"Article; Streitwieser et al.; Journal of Organic Chemistry; vol. 32; (1967); p. 1532,1534;",https://www.reaxys.com/reaxys/secured/hopinto.do?context=C&query=CNR.CNR%3D3765755&database=RX&origin=ReaxysOutput&ln=
,[2H]OC(C)(C)C,1732368.0,https://www.reaxys.com/reaxys/secured/hopinto.do?context=S&query=IDE.XRN%3D1732368&database=RX&origin=ReaxysOutput&ln=,(787 of 4000),3972-25-6,tert-butanol-OD; tert-butyl alcohol-d,C4H9(2)HO,C4H10O,75.1149,acyclic,,DKGAVHZHDRPRBM-UICOGKGYSA-N,,,,Identification(15); Physical Data(35); Spectra(23),64.0,112.0,24 - 25,,,,,,Article; Wolfe et al.; Canadian Journal of Chemistry; vol. 46; (1968); p. 3402;,https://www.reaxys.com/reaxys/secured/hopinto.do?context=C&query=CNR.CNR%3D3814640&database=RX&origin=ReaxysOutput&ln=
,CC(N)=S,506006.0,https://www.reaxys.com/reaxys/secured/hopinto.do?context=S&query=IDE.XRN%3D506006&database=RX&origin=ReaxysOutput&ln=,(788 of 4000),62-55-5,thioacetamide,SC(NH2)CH3,C2H5NS,75.1344,acyclic,,YUKQRDCYNOVPGJ-UHFFFAOYSA-N,,,,Identification(5436); Physical Data(180); Spectra(87); Bioactivity(589),2527.0,7659.0,121 - 122,,,,,,"Article; Bagley, Mark C.; Chapaneri, Krishna; Glover, Christian; Merritt, Eleanor A.; Synlett; 14; (2004); p. 2615 - 2617;",https://www.reaxys.com/reaxys/secured/hopinto.do?context=C&query=CNR.CNR%3D6472231&database=RX&origin=ReaxysOutput&ln=
,CNC=S,1719574.0,https://www.reaxys.com/reaxys/secured/hopinto.do?context=S&query=IDE.XRN%3D1719574&database=RX&origin=ReaxysOutput&ln=,(789 of 4000),18952-41-5,N-Methyl-thioformamid,HCSNHCH3,C2H5NS,75.1344,acyclic,,YGQNFDNQDVKVAW-UHFFFAOYSA-N,,,,Identification(21); Physical Data(9); Spectra(16); Bioactivity(3),12.0,26.0,71 - 75.5,CHCl3; petroleum ether,,(e)-N-methyl-thioformamide (s-trans-form),,,"Article; Walter; Schaumann; Chemische Berichte; vol. 104; (1971); p. 3361,3374;",https://www.reaxys.com/reaxys/secured/hopinto.do?context=C&query=CNR.CNR%3D4488958&database=RX&origin=ReaxysOutput&ln=
,CN(C)[SiH3],1730822.0,https://www.reaxys.com/reaxys/secured/hopinto.do?context=S&query=IDE.XRN%3D1730822&database=RX&origin=ReaxysOutput&ln=,(790 of 4000),2875-98-1,"N,N-dimethylsilylamine; Dimethylamino-silan; Dimethyl-silyl-amin; Silyl-dimethylamin",H3SiN(CH3)2,C2H9NSi,75.1857,acyclic,,AHJCYBLQMDWLOC-UHFFFAOYSA-N,,,,Identification(15); Physical Data(11); Spectra(13),13.0,40.0,3.3 - 3.4,,,im geschlossenen Roehrchen.,,,Article; Sujishi; Witz; Journal of the American Chemical Society; vol. 76; (1954); p. 4634;,https://www.reaxys.com/reaxys/secured/hopinto.do?context=C&query=CNR.CNR%3D1232193&database=RX&origin=ReaxysOutput&ln=
,ClCC#N,506028.0,https://www.reaxys.com/reaxys/secured/hopinto.do?context=S&query=IDE.XRN%3D506028&database=RX&origin=ReaxysOutput&ln=,(792 of 4000),107-14-2,chloroacetonitrile; Chloracetonitrile,ClC2H2N,C2H2ClN,75.4976,acyclic,,RENMDAKOXSCIGH-UHFFFAOYSA-N,,,,Identification(661); Physical Data(118); Spectra(41); Bioactivity(235),5400.0,4256.0,159 - 163,,,,,,Patent; PFIZER INC; US2003/4172; (2003); A1;,https://www.reaxys.com/reaxys/secured/hopinto.do?context=C&query=CNR.CNR%3D211623&database=RX&origin=ReaxysOutput&ln=
,FB(F)C=C,1738959.0,https://www.reaxys.com/reaxys/secured/hopinto.do?context=S&query=IDE.XRN%3D1738959&database=RX&origin=ReaxysOutput&ln=,(794 of 4000),358-95-2,vinyldifluoroborane; Vinyldifluorboran; Difluor-vinyl-boran; Vinylbordifluorid,BF2CHCH2,C2H3BF2,75.8536,acyclic,,ASPQFSKZWSAQBU-UHFFFAOYSA-N,,,,Identification(10); Physical Data(31); Spectra(30),32.0,64.0,-133.4,,,,,,"Article; Brinckman,F.E.; Stone,F.G.A.; Journal of the American Chemical Society; vol. 82; (1960); p. 6218 - 6223;; ; Article; Gmelin Handbuch der Anorganischen Chemie; vol. B: B-Verb.9; 5.1.2, page 145 - 155;; ; Report; Brinckman, F. E.; Dissertation abstracts; vol. 22; (1961); p. 1003; Diss. Harvard Univ. 1961, S. 1/91; (from Gmelin)",https://www.reaxys.com/reaxys/secured/hopinto.do?context=C&query=CNR.CNR%3D50047&database=RX&origin=ReaxysOutput&ln=
,OCB(O)O,1846854.0,https://www.reaxys.com/reaxys/secured/hopinto.do?context=S&query=IDE.XRN%3D1846854&database=RX&origin=ReaxysOutput&ln=,(795 of 4000),,hydroxymethyl dihydroxy borane,CH5BO3,CH5BO3,75.8599,acyclic,,WLVJMFFJFXQUGK-UHFFFAOYSA-N,,,,Identification(5); Physical Data(1),5.0,5.0,147 - 148,,,,,,"Article; Matteson,D.S.; Cheng,T.-C.; Journal of Organometallic Chemistry; vol. 6; (1966); p. 100 - 101;; ; Article; Gmelin Handbuch der Anorganischen Chemie; vol. B: B-Verb.13; 4.7.2, page 180 - 189; (from Gmelin)",https://www.reaxys.com/reaxys/secured/hopinto.do?context=C&query=CNR.CNR%3D282960&database=RX&origin=ReaxysOutput&ln=
,[H]B([H])[H].[H]P(C)C,3663502.0,https://www.reaxys.com/reaxys/secured/hopinto.do?context=S&query=IDE.XRN%3D3663502&database=RX&origin=ReaxysOutput&ln=,(796 of 4000),,Dimethylphosphin-boran-Komplex,(CH3)2HP*BH3,BH3*C2H7P,75.8862,acyclic,,WNEJLZDEDLSCQY-UHFFFAOYSA-N,,,,Identification(8); Physical Data(3); Spectra(16),3.0,17.0,-22.6,,,,,,"Article; Burg; Wagner; Journal of the American Chemical Society; vol. 75; (1953); p. 3872,3873;",https://www.reaxys.com/reaxys/secured/hopinto.do?context=C&query=CNR.CNR%3D1276031&database=RX&origin=ReaxysOutput&ln=