Structure: Image,SMILES,Substance Identification: Reaxys Registry Number,Links to Reaxys,Data Count,CAS Registry Number,Chemical Name,Linear Structure Formula,Molecular Formula,Molecular Weight,Type of Substance,Type and Modification,InChI Key,Composition: Comp. Name,Composition: Comp. Conc.,Composition: Comp. Attrib.,Field Availability,Number of Reactions,Number of References,Melting Point: Melting Point [C],Solvent (Melting Point),Location,Comment (Melting Point),Crystallizes With,Amount (Melting Point) [mol],References,Links to Reaxys.1
,CC(O)OO,1731606.0,https://www.reaxys.com/reaxys/secured/hopinto.do?context=S&query=IDE.XRN%3D1731606&database=RX&origin=ReaxysOutput&ln=,(898 of 4000),19393-68-1,1-hydroxyethylhydroperoxide; 1-hydroperoxyethan-1-ol; 1-hydroperoxy-ethanol; 1-Hydroxy-aethylhydroperoxid; 1-Hydroperoxy-aethanol; peracetic acid,C2H6O3,C2H6O3,78.0678,acyclic,,HSMZCCZZTKIAAI-UHFFFAOYSA-N,,,,Identification(18); Physical Data(11); Spectra(7),16.0,26.0,40 - 41,,,,,,Article; Sulima; Franchuk.; Soviet progress in chemistry; vol. 38; 4; (1972); p. 38; Ukrainskii Khimicheskii Zhurnal (Russian Edition); vol. 38; 4; (1972); p. 333;,https://www.reaxys.com/reaxys/secured/hopinto.do?context=C&query=CNR.CNR%3D3979268&database=RX&origin=ReaxysOutput&ln=
,NOCON,3028800.0,https://www.reaxys.com/reaxys/secured/hopinto.do?context=S&query=IDE.XRN%3D3028800&database=RX&origin=ReaxysOutput&ln=,(899 of 4000),40770-44-3,methylene bis(oxyamine),CH6N2O2,CH6N2O2,78.0708,acyclic,,QZCQVXPUVDYUER-UHFFFAOYSA-N,,,,Identification(10); Physical Data(2),4.0,5.0,-9 - -8,,,,,,Patent; GOVERNMENT OF THE UNITED STATES; US3714199; (1970); A; Chem.Abstr.; vol. 78; 135644; Chem.Abstr.; vol. 78; 135644;,https://www.reaxys.com/reaxys/secured/hopinto.do?context=C&query=CNR.CNR%3D5190547&database=RX&origin=ReaxysOutput&ln=
,[H]N([H])[H].CN(=O)=O,3673055.0,https://www.reaxys.com/reaxys/secured/hopinto.do?context=S&query=IDE.XRN%3D3673055&database=RX&origin=ReaxysOutput&ln=,(900 of 4000),1964-87-0,nitro-methane; compound with ammonia; Nitro-methan; Verbindung mit Ammoniak,CH3NO2*H3N,CH3NO2*H3N,78.0708,acyclic,,VCENBQBLWBKXQA-UHFFFAOYSA-N,,,,Identification(6); Physical Data(1),2.0,2.0,0 - 10,,,,,,Article; Franklin; Kraus; Journal of the American Chemical Society; vol. 27; (1905); p. 210;,https://www.reaxys.com/reaxys/secured/hopinto.do?context=C&query=CNR.CNR%3D1290475&database=RX&origin=ReaxysOutput&ln=
,[NH4+].NC([O-])=O,13207088.0,https://www.reaxys.com/reaxys/secured/hopinto.do?context=S&query=IDE.XRN%3D13207088&database=RX&origin=ReaxysOutput&ln=,(901 of 4000),,ammonium carbamate; anhydrous ammonium carbamate,NH4(1+)*NH2CO2(1-)=NH2CO2NH4,CH2NO2*H4N,78.0708,,,BVCZEBOGSOYJJT-UHFFFAOYSA-N,,,,Identification(711); Physical Data(113); Spectra(2),100.0,958.0,153,,,,,,"Article; Frejacques, M.; Chimie et Industrie (Paris); vol. 60; (1948); p. 22 - 36;; ; Article; Gmelin Handbuch der Anorganischen Chemie; vol. C: MVol.D1; 45.1.4.1, page 391 - 393; (from Gmelin)",https://www.reaxys.com/reaxys/secured/hopinto.do?context=C&query=CNR.CNR%3D7415104&database=RX&origin=ReaxysOutput&ln=
,N#C\C=C\C#N,969245.0,https://www.reaxys.com/reaxys/secured/hopinto.do?context=S&query=IDE.XRN%3D969245&database=RX&origin=ReaxysOutput&ln=,(902 of 4000),764-42-1,"1,2-Dicyanoethylene; Fumaronitrile",NCHCCHCN,C4H2N2,78.0733,acyclic,,KYPOHTVBFVELTG-OWOJBTEDSA-N,,,,Identification(120); Physical Data(110); Spectra(38); Bioactivity(58),1298.0,828.0,96 - 97,,,Method: subl. sample,,,"Article; Mloston, Grzegorz; Heimgartner, Heinz; Helvetica Chimica Acta; vol. 75; 6; (1992); p. 1825 - 1833;",https://www.reaxys.com/reaxys/secured/hopinto.do?context=C&query=CNR.CNR%3D5661219&database=RX&origin=ReaxysOutput&ln=
,N#C\C=C/C#N,1420822.0,https://www.reaxys.com/reaxys/secured/hopinto.do?context=S&query=IDE.XRN%3D1420822&database=RX&origin=ReaxysOutput&ln=,(903 of 4000),928-53-0; 764-42-1; 17656-09-6; 62600-65-1; 62742-11-4,"maleonitrile; (Z)-1,2-dicyanoethylene",NCCHCHCN,C4H2N2,78.0733,acyclic,,KYPOHTVBFVELTG-UPHRSURJSA-N,,,,Identification(63); Physical Data(33); Spectra(23),181.0,192.0,30 - 32,,,,,,Article; Brown et al.; Chemistry and industry; (1966); p. 343;; ; Article; Kikkawa et al.; Bulletin of the Chemical Society of Japan; vol. 45; (1972); p. 2523;,https://www.reaxys.com/reaxys/secured/hopinto.do?context=C&query=CNR.CNR%3D2685673&database=RX&origin=ReaxysOutput&ln=
,C=C(C#N)C#N,1420929.0,https://www.reaxys.com/reaxys/secured/hopinto.do?context=S&query=IDE.XRN%3D1420929&database=RX&origin=ReaxysOutput&ln=,(904 of 4000),922-64-5,"1,1-dicyanoethylene; methylenemalononitrile; Vinylidencyanid; 1,1-Dicyanoethylen; 1,1-Dicyan-ethylen; vinylidene cyanide; 2-cyanoacrylonitrile",C4H2N2,C4H2N2,78.0733,acyclic,,FCYVWWWTHPPJII-UHFFFAOYSA-N,,,,Identification(113); Physical Data(19); Spectra(9),115.0,164.0,9.7,,,,,,Article; Ardis et al.; Journal of the American Chemical Society; vol. 72; (1950); p. 1305;,https://www.reaxys.com/reaxys/secured/hopinto.do?context=C&query=CNR.CNR%3D1192483&database=RX&origin=ReaxysOutput&ln=
,N#CC=CC#N,1900873.0,https://www.reaxys.com/reaxys/secured/hopinto.do?context=S&query=IDE.XRN%3D1900873&database=RX&origin=ReaxysOutput&ln=,(905 of 4000),764-42-1,"butenedinitrile; fumaronitrile; fumarodinitrile; 1,2-Dicyan-ethylen",CNCHCHCN,C4H2N2,78.0733,acyclic,,KYPOHTVBFVELTG-UHFFFAOYSA-N,,,,Identification(42); Physical Data(3); Spectra(9); Bioactivity(1),148.0,109.0,93 - 95,,,,,,"Article; Chang, Fei; Kim, Hakwon; Lee, Byeongno; Park, Sungho; Park, Jaiwook; Tetrahedron Letters; vol. 51; 32; (2010); p. 4250 - 4252;",https://www.reaxys.com/reaxys/secured/hopinto.do?context=C&query=CNR.CNR%3D8908974&database=RX&origin=ReaxysOutput&ln=
,O.O=[Si]=O,14617320.0,https://www.reaxys.com/reaxys/secured/hopinto.do?context=S&query=IDE.XRN%3D14617320&database=RX&origin=ReaxysOutput&ln=,(906 of 4000),23382-09-4,silicon dioxide hydrate; silica hydrate,H2O*O2Si,H2O*O2Si,78.0996,,,LRCFXGAMWKDGLA-UHFFFAOYSA-N,,,,Identification(21); Physical Data(1); Spectra(5),80.0,108.0,121 - 122,,,,,,Patent; MERCK &amp; CO INC; US4234596; (1980); A;,https://www.reaxys.com/reaxys/secured/hopinto.do?context=C&query=CNR.CNR%3D35935&database=RX&origin=ReaxysOutput&ln=
,[15NH2]C(S)=[15NH],7421047.0,https://www.reaxys.com/reaxys/secured/hopinto.do?context=S&query=IDE.XRN%3D7421047&database=RX&origin=ReaxysOutput&ln=,(910 of 4000),,(15N2)thiourea,CH4(15)N2S,CH4N2S,78.1088,acyclic,,UMGDCJDMYOKAJW-SUEIGJEOSA-N,,,,Identification(6); Physical Data(1); Spectra(2),1.0,1.0,176 - 179,,,,,,"Article; Amantea, Antonio; Henz, Matthias; Strazewski, Peter; Helvetica Chimica Acta; vol. 79; 1; (1996); p. 244 - 254;",https://www.reaxys.com/reaxys/secured/hopinto.do?context=C&query=CNR.CNR%3D6003270&database=RX&origin=ReaxysOutput&ln=
,[2H]C([2H])([2H])C(N)=S,1850625.0,https://www.reaxys.com/reaxys/secured/hopinto.do?context=S&query=IDE.XRN%3D1850625&database=RX&origin=ReaxysOutput&ln=,(911 of 4000),13386-16-8,"2-Trideutero-thioacetamid; Thioacetamid-C-d3; 2,2,2-trideuterio-thioacetamide",C2H2D3NS,C2H5NS,78.1106,acyclic,,YUKQRDCYNOVPGJ-FIBGUPNXSA-N,,,,Identification(8); Physical Data(1); Spectra(3),2.0,4.0,111.5 - 112,CHCl3; benzene; ethanol,,,,,"Article; Walter; Kubersky; Justus Liebigs Annalen der Chemie; vol. 694; (1966); p. 56,67;",https://www.reaxys.com/reaxys/secured/hopinto.do?context=C&query=CNR.CNR%3D3868405&database=RX&origin=ReaxysOutput&ln=
,O.CCCO,15695777.0,https://www.reaxys.com/reaxys/secured/hopinto.do?context=S&query=IDE.XRN%3D15695777&database=RX&origin=ReaxysOutput&ln=,(912 of 4000),496847-14-4,n-propanol water,C3H8O*H2O,C3H8O*H2O,78.1112,,,KIDBBTHHMJOMAU-UHFFFAOYSA-N,,,,Identification(1524); Physical Data(4); Spectra(3),18.0,1532.0,142 - 144,,,,,,Patent; ARIZONA BOARD OF REGENTS; US2003/220298; (2003); A1;,https://www.reaxys.com/reaxys/secured/hopinto.do?context=C&query=CNR.CNR%3D233690&database=RX&origin=ReaxysOutput&ln=
,C#CCCC#C,505961.0,https://www.reaxys.com/reaxys/secured/hopinto.do?context=S&query=IDE.XRN%3D505961&database=RX&origin=ReaxysOutput&ln=,(913 of 4000),628-16-0,"hexa-1,5-diyne; 1,5-hexadiyne",HCCCH2CH2CCH,C6H6,78.1136,acyclic,,YFIBSNDOVCWPBL-UHFFFAOYSA-N,,,,Identification(76); Physical Data(79); Spectra(40),439.0,336.0,-5.5,,,,,,"Article; Hill et al.; Journal of Chemical Thermodynamics; vol. 10; (1978); p. 1153,1155, 1157;",https://www.reaxys.com/reaxys/secured/hopinto.do?context=C&query=CNR.CNR%3D4060756&database=RX&origin=ReaxysOutput&ln=
,C=CC#CC=C,635664.0,https://www.reaxys.com/reaxys/secured/hopinto.do?context=S&query=IDE.XRN%3D635664&database=RX&origin=ReaxysOutput&ln=,(914 of 4000),821-08-9,"hexa-1,5-dien-3-yne; Divinylacetylen; divinylacetylene; Hexadien-(1,5)-in-(3); 1,5-Hexadien-3-in; 1,5-hexadien-3-yne",C6H6,C6H6,78.1136,acyclic,,AUBDSFLQOBEOPX-UHFFFAOYSA-N,,,,Identification(52); Physical Data(36); Spectra(24),108.0,146.0,-87.83,,,,,,Patent; DUPONT DE NEMOURS INC; US2173272; (1937); A;,https://www.reaxys.com/reaxys/secured/hopinto.do?context=C&query=CNR.CNR%3D1350656&database=RX&origin=ReaxysOutput&ln=
,C1=CC=CC=C1,969212.0,https://www.reaxys.com/reaxys/secured/hopinto.do?context=S&query=IDE.XRN%3D969212&database=RX&origin=ReaxysOutput&ln=,(915 of 4000),71-43-2,benzene,C6H6,C6H6,78.1136,isocyclic,,UHOVQNZJYSORNB-UHFFFAOYSA-N,,,,Identification(11140); Physical Data(10430); Spectra(886); Bioactivity(3071),44377.0,49049.0,5.84,,,,,,"Article; Mcconville, Christina A.; Tao, Yunwen; Evans, Hayden A.; Trump, Benjamin A.; Lefton, Jonathan B.; Xu, Wenqian; Yakovenko, Andrey A.; Kraka, Elfi; Brown, Craig M.; Runčevski, Tomče; Chemical Communications; vol. 56; 88; (2020); p. 13520 - 13523;",https://www.reaxys.com/reaxys/secured/hopinto.do?context=C&query=CNR.CNR%3D81522806&database=RX&origin=ReaxysOutput&ln=
,CC#CC#CC,1731159.0,https://www.reaxys.com/reaxys/secured/hopinto.do?context=S&query=IDE.XRN%3D1731159&database=RX&origin=ReaxysOutput&ln=,(916 of 4000),2809-69-0,"2,4-hexadiyne; hexa-2,4-diyne",(CH3CC)2,C6H6,78.1136,acyclic,,PCTCNWZFDASPLA-UHFFFAOYSA-N,,,,Identification(87); Physical Data(67); Spectra(46),224.0,292.0,69,,,,,,Patent; UOP (in: Honeywell); HONEYWELL INTERNATIONAL INC; US7393993; (2008); B1;,https://www.reaxys.com/reaxys/secured/hopinto.do?context=C&query=CNR.CNR%3D8640164&database=RX&origin=ReaxysOutput&ln=
,C=CC=CC#C,1732090.0,https://www.reaxys.com/reaxys/secured/hopinto.do?context=S&query=IDE.XRN%3D1732090&database=RX&origin=ReaxysOutput&ln=,(917 of 4000),10420-90-3,"1,3-hexadien-5-yne; 1,3-Hexadien-5-in",C6H6,C6H6,78.1136,acyclic,,OGWJYLKDZYZYBA-UHFFFAOYSA-N,,,,Identification(14); Physical Data(24); Spectra(9); Bioactivity(1),62.0,34.0,-81.03,,,,,,Patent; DUPONT DE NEMOURS INC; US2173272; (1937); A;,https://www.reaxys.com/reaxys/secured/hopinto.do?context=C&query=CNR.CNR%3D1350656&database=RX&origin=ReaxysOutput&ln=
,C=C=CC=C=C,2035834.0,https://www.reaxys.com/reaxys/secured/hopinto.do?context=S&query=IDE.XRN%3D2035834&database=RX&origin=ReaxysOutput&ln=,(918 of 4000),29776-96-3,"1,2,4,5-hexatetraene; 1,2,4,5-Hexatetraen",C6H6,C6H6,78.1136,acyclic,,ROAKNVNVSBKPLL-UHFFFAOYSA-N,,,,Identification(30); Physical Data(7); Spectra(10),59.0,39.0,-36,,,,,,Article; Hopf; Angewandte Chemie; vol. 82; (1970); p. 703;,https://www.reaxys.com/reaxys/secured/hopinto.do?context=C&query=CNR.CNR%3D4006807&database=RX&origin=ReaxysOutput&ln=
,C=C1C=CC=C1,2035989.0,https://www.reaxys.com/reaxys/secured/hopinto.do?context=S&query=IDE.XRN%3D2035989&database=RX&origin=ReaxysOutput&ln=,(919 of 4000),497-20-1,fulvene; pentafulvene,CH2C5H4,C6H6,78.1136,isocyclic,,PGTKVMVZBBZCKQ-UHFFFAOYSA-N,,,,Identification(481); Physical Data(40); Spectra(31),46.0,579.0,19 - 21,,,,,,Patent; LYONDELLBASELL INDUSTRIES N.V.; US2003/148877; (2003); A1;,https://www.reaxys.com/reaxys/secured/hopinto.do?context=C&query=CNR.CNR%3D227728&database=RX&origin=ReaxysOutput&ln=
,C1=CC1C1C=C1,5490051.0,https://www.reaxys.com/reaxys/secured/hopinto.do?context=S&query=IDE.XRN%3D5490051&database=RX&origin=ReaxysOutput&ln=,(920 of 4000),62595-44-2,1-(cycloprop-2-enyl)cycloprop-2-ene; Bicycloprop-2-enyl,C6H6,C6H6,78.1136,isocyclic,,HVWGZGIZCKXHJV-UHFFFAOYSA-N,,,,Identification(5); Physical Data(7); Spectra(7),8.0,4.0,-75.15,,,,,,"Article; Boese, Roland; Bläser, Dieter; Gleiter, Rolf; Pfeifer, Karl-Heinz; Billups; Haley, Michael M.; Journal of the American Chemical Society; vol. 115; 2; (1993); p. 743 - 746;",https://www.reaxys.com/reaxys/secured/hopinto.do?context=C&query=CNR.CNR%3D5712883&database=RX&origin=ReaxysOutput&ln=
,[H]O[H].NCCN,3665358.0,https://www.reaxys.com/reaxys/secured/hopinto.do?context=S&query=IDE.XRN%3D3665358&database=RX&origin=ReaxysOutput&ln=,(921 of 4000),6780-13-8,"1,2-ethanediamine monohydrate; ethylenediamine monohydrate; 1,2-Diaminoethan Monohydrate; 1,2-Diaminoethan-Monohydrat; 1,2-Diaminoethan-hydrat; ethylenediamine hydrate; 1,2-diaminoethane mohohydrate; Aethylendiamin; Monohydrat; 1,2-diaminoethane hydrate; ethylenediamine*H2O",H2NC2H4NH2*H2O,C2H8N2*H2O,78.1142,acyclic,,XZUAPPXGIFNDRA-UHFFFAOYSA-N,,,,Identification(20); Physical Data(18); Spectra(1),217.0,201.0,11,,,,,,"Article; Wilson; Industrial and Engineering Chemistry; vol. 27; (1935); p. 867,870;; ; Article; Janeda, Stephanie; Mootz, Dietrich; Zeitschrift fur Naturforschung, B: Chemical Sciences; vol. 53; 10; (1998); p. 1197 - 1202;",https://www.reaxys.com/reaxys/secured/hopinto.do?context=C&query=CNR.CNR%3D748082&database=RX&origin=ReaxysOutput&ln=
,CS(C)=O,506008.0,https://www.reaxys.com/reaxys/secured/hopinto.do?context=S&query=IDE.XRN%3D506008&database=RX&origin=ReaxysOutput&ln=,(922 of 4000),67-68-5,dimethyl sulfoxide; Dimethyl sulphoxide; Dimethysulfoxide,(CH3)2S(O),C2H6OS,78.135,acyclic,,IAZDPXIOMUYVGZ-UHFFFAOYSA-N,,,,Identification(6225); Physical Data(2545); Spectra(279); Bioactivity(9355),14735.0,24927.0,18.4,,,,,,"Patent; LG CHEM CO.,LTD.; WO2008/2028; (2008); A1;; ; Article; Lopatin et al.; Pharmaceutical Chemistry Journal; vol. 6; 11; (1972); p. 724; Khimiko-Farmatsevticheskii Zhurnal; vol. 6; 11; (1972); p. 36;; ; Article; Bethell; Cockerill; Journal of the Chemical Society B: Physical Organic; (1966); p. 913;; ; Patent; Wedernikow; Maksimow; SU491622; (1976); A1; Ref. Zh., Khim.; vol. 3; N112; (1977); Ref. Zh., Khim.; vol. 3; N112; (1977);",https://www.reaxys.com/reaxys/secured/hopinto.do?context=C&query=CNR.CNR%3D453858&database=RX&origin=ReaxysOutput&ln=
,COCS,1730849.0,https://www.reaxys.com/reaxys/secured/hopinto.do?context=S&query=IDE.XRN%3D1730849&database=RX&origin=ReaxysOutput&ln=,(923 of 4000),88798-43-0,methyl thiomethyl ether; methoxymethanethiol; Methoxymethylmercaptan; Methoxy-methanthiol,C2H6OS,C2H6OS,78.135,acyclic,,MJGXOSYVWHETDC-UHFFFAOYSA-N,,,,Identification(1223); Physical Data(7); Spectra(4),12.0,1223.0,-52.4,,,,,,Article; de Lattre; Chemisches Zentralblatt; vol. 83; II; (1912); p. 1192;,https://www.reaxys.com/reaxys/secured/hopinto.do?context=C&query=CNR.CNR%3D505917&database=RX&origin=ReaxysOutput&ln=
,SC=S,1900396.0,https://www.reaxys.com/reaxys/secured/hopinto.do?context=S&query=IDE.XRN%3D1900396&database=RX&origin=ReaxysOutput&ln=,(924 of 4000),4472-10-0,dithioformic acid; Dithioameisensaeure,CH2S2,CH2S2,78.1589,acyclic,,WREDNSAXDZCLCP-UHFFFAOYSA-N,,,,Identification(23); Physical Data(8); Spectra(8),20.0,25.0,,,,,,,"Article; Engler; Gattow; Zeitschrift fur Anorganische und Allgemeine Chemie; vol. 389; (1972); p. 151,153,155;",https://www.reaxys.com/reaxys/secured/hopinto.do?context=C&query=CNR.CNR%3D4290988&database=RX&origin=ReaxysOutput&ln=
,C[SiH](C)F,1730827.0,https://www.reaxys.com/reaxys/secured/hopinto.do?context=S&query=IDE.XRN%3D1730827&database=RX&origin=ReaxysOutput&ln=,(925 of 4000),865-46-3,Dimethylfluorsilan; dimethylfluorosilane; Fluor-dimethyl-silan,C2H7FSi,C2H7FSi,78.1615,acyclic,,NZJOONTZXJXTOL-UHFFFAOYSA-N,,,,Identification(15); Physical Data(7); Spectra(12),14.0,23.0,-115,,,,,,"Article; Emeleus; Onyszchuk; Journal of the Chemical Society; (1958); p. 604,606;",https://www.reaxys.com/reaxys/secured/hopinto.do?context=C&query=CNR.CNR%3D1278774&database=RX&origin=ReaxysOutput&ln=
,CC[SiH2]F,1918081.0,https://www.reaxys.com/reaxys/secured/hopinto.do?context=S&query=IDE.XRN%3D1918081&database=RX&origin=ReaxysOutput&ln=,(926 of 4000),34592-87-5,ethyl fluorosilane; Ethylfluorsilan,C2H7FSi,C2H7FSi,78.1615,acyclic,,IHHXATPAKZRURI-UHFFFAOYSA-N,,,,Identification(7); Physical Data(10); Spectra(7),2.0,5.0,-141.7,,,,,,"Article; Finch et al.; Synthesis in Inorganic and Metal-Organic Chemistry; vol. 1; (1971); p. 103,107, 108;",https://www.reaxys.com/reaxys/secured/hopinto.do?context=C&query=CNR.CNR%3D4077659&database=RX&origin=ReaxysOutput&ln=
,CS[SiH3],1839339.0,https://www.reaxys.com/reaxys/secured/hopinto.do?context=S&query=IDE.XRN%3D1839339&database=RX&origin=ReaxysOutput&ln=,(927 of 4000),16643-15-5,Methylmercaptosilan,CH3SSiH3,CH6SSi,78.2101,acyclic,,KMRKZWOJLUYLAM-UHFFFAOYSA-N,,,,Identification(5); Physical Data(7); Spectra(12),4.0,9.0,-116,,,,,,Article; Sternbach; MacDiarmid; Journal of Inorganic and Nuclear Chemistry; vol. 23; (1961); p. 225;,https://www.reaxys.com/reaxys/secured/hopinto.do?context=C&query=CNR.CNR%3D3798646&database=RX&origin=ReaxysOutput&ln=
,[H].[H].[H].[H].[H].[H].O.[SiH4].[SiH4],16940562.0,https://www.reaxys.com/reaxys/secured/hopinto.do?context=S&query=IDE.XRN%3D16940562&database=RX&origin=ReaxysOutput&ln=,(928 of 4000),,disiloxane,Si2OH6,H6OSi2,78.218,,,MXKDCMHBNYKVBJ-UHFFFAOYSA-N,,,,Identification(6); Physical Data(7); Spectra(1),2.0,7.0,-143.6,,,,,,"Article; Stock, A.; Somieski, C.; Chemische Berichte; vol. 56; (1923); p. 132 - 135;; ; Article; Gmelin Handbuch der Anorganischen Chemie; vol. Si: MVol.B; 210, page 582 - 585; (from Gmelin)",https://www.reaxys.com/reaxys/secured/hopinto.do?context=C&query=CNR.CNR%3D7557549&database=RX&origin=ReaxysOutput&ln=
,CC(Cl)=O,605303.0,https://www.reaxys.com/reaxys/secured/hopinto.do?context=S&query=IDE.XRN%3D605303&database=RX&origin=ReaxysOutput&ln=,(930 of 4000),75-36-5,acetyl chloride,ClC(O)CH3,C2H3ClO,78.4982,acyclic; Isotope or isotope containing compound,,WETWJCDKMRHUPV-UHFFFAOYSA-N,,,,Identification(552); Physical Data(213); Spectra(119); Bioactivity(1842),54707.0,36803.0,175,,,,,,Patent; BASF SE; US2009/186766; (2009); A1;,https://www.reaxys.com/reaxys/secured/hopinto.do?context=C&query=CNR.CNR%3D8753706&database=RX&origin=ReaxysOutput&ln=
,ClCC=O,1071226.0,https://www.reaxys.com/reaxys/secured/hopinto.do?context=S&query=IDE.XRN%3D1071226&database=RX&origin=ReaxysOutput&ln=,(931 of 4000),107-20-0,2-chloroethanal; chloroacetaldehyde,CH2ClCHO,C2H3ClO,78.4982,acyclic,,QSKPIOLLBIHNAC-UHFFFAOYSA-N,,,,Identification(645); Physical Data(45); Spectra(49); Bioactivity(161),2108.0,2258.0,,,,,,,"Article; Didier; Metzger; Comptes Rendus Hebdomadaires des Seances de l'Academie des Sciences; vol. 252; (1961); p. 1619;; ; Article; Greenfield et al.; Journal of labelled compounds and radiopharmaceuticals; vol. 12; (1976); p. 545,546,547;",https://www.reaxys.com/reaxys/secured/hopinto.do?context=C&query=CNR.CNR%3D3106753&database=RX&origin=ReaxysOutput&ln=
,ClOC=C,10060827.0,https://www.reaxys.com/reaxys/secured/hopinto.do?context=S&query=IDE.XRN%3D10060827&database=RX&origin=ReaxysOutput&ln=,(932 of 4000),155080-10-7,oxallyl chloride; chlorooxyethylene,C2H3ClO,C2H3ClO,78.4982,acyclic,,MFXABBUXWRSTMP-UHFFFAOYSA-N,,,,Identification(10); Physical Data(1); Spectra(1),10.0,16.0,144 - 145,,,,,,Patent; NOVARTIS AG; Novartis (w/o Sandoz); US5378719; (1995); A;,https://www.reaxys.com/reaxys/secured/hopinto.do?context=C&query=CNR.CNR%3D92466&database=RX&origin=ReaxysOutput&ln=