Structure: Image,SMILES,Substance Identification: Reaxys Registry Number,Links to Reaxys,Data Count,CAS Registry Number,Chemical Name,Linear Structure Formula,Molecular Formula,Molecular Weight,Type of Substance,Type and Modification,InChI Key,Composition: Comp. Name,Composition: Comp. Conc.,Composition: Comp. Attrib.,Field Availability,Number of Reactions,Number of References,Melting Point: Melting Point [C],Solvent (Melting Point),Location,Comment (Melting Point),Crystallizes With,Amount (Melting Point) [mol],References,Links to Reaxys.1
,CC=C=CC,1697021.0,https://www.reaxys.com/reaxys/secured/hopinto.do?context=S&query=IDE.XRN%3D1697021&database=RX&origin=ReaxysOutput&ln=,(481 of 4000),591-96-8,"penta-2,3-diene; 2,3-Pentadien; 2,3-pentadiene; Penta-2,3-dien; 1.3-Dimethyl-allen; Pentadien-(2.3); 1,3-Dimethylallene",CH3CHCCHCH3,C5H8,68.1185,acyclic,,PODAMDNJNMAKAZ-UHFFFAOYSA-N,,,,Identification(67); Physical Data(42); Spectra(19),140.0,160.0,-125.63,,,,,,"Article; Messerly; Journal of Chemical and Engineering Data; vol. 15; (1970); p. 227,228,229,230,231,232;",https://www.reaxys.com/reaxys/secured/hopinto.do?context=C&query=CNR.CNR%3D4157508&database=RX&origin=ReaxysOutput&ln=
,CC(C)=C=C,1697090.0,https://www.reaxys.com/reaxys/secured/hopinto.do?context=S&query=IDE.XRN%3D1697090&database=RX&origin=ReaxysOutput&ln=,(482 of 4000),598-25-4,"Dimethylallene; 3-Methyl-1,2-butadiene; 1,1-dimethylallene",C(CH3)2CCH2,C5H8,68.1185,acyclic,,PAKGDPSCXSUALC-UHFFFAOYSA-N,,,,Identification(152); Physical Data(79); Spectra(30),1580.0,681.0,-113.62,,,,,,"Article; Messerly; Journal of Chemical and Engineering Data; vol. 15; (1970); p. 227,228,229,230,231,232;",https://www.reaxys.com/reaxys/secured/hopinto.do?context=C&query=CNR.CNR%3D4157508&database=RX&origin=ReaxysOutput&ln=
,CCCC#C,1697133.0,https://www.reaxys.com/reaxys/secured/hopinto.do?context=S&query=IDE.XRN%3D1697133&database=RX&origin=ReaxysOutput&ln=,(483 of 4000),627-19-0,1-Pentyne; pentyne,C3H7C2H,C5H8,68.1185,acyclic,,IBXNCJKFFQIKKY-UHFFFAOYSA-N,,,,Identification(491); Physical Data(125); Spectra(58); Bioactivity(124),4982.0,2474.0,-106.5,,,,,,"Article; Pomerantz et al.; Journal of Research of the National Bureau of Standards (United States); vol. 52; (1954); p. 59,60;",https://www.reaxys.com/reaxys/secured/hopinto.do?context=C&query=CNR.CNR%3D1404246&database=RX&origin=ReaxysOutput&ln=
,CC(C)C#C,1731476.0,https://www.reaxys.com/reaxys/secured/hopinto.do?context=S&query=IDE.XRN%3D1731476&database=RX&origin=ReaxysOutput&ln=,(484 of 4000),598-23-2,3-methyl-but-1-yne; isopropylacetylene; 3-methyl-1-butyne,(CH3)2CHCCH,C5H8,68.1185,acyclic,,USCSRAJGJYMJFZ-UHFFFAOYSA-N,,,,Identification(91); Physical Data(64); Spectra(38); Bioactivity(32),1440.0,631.0,-90.08,,,,,,"Article; Miller et al.; Journal of Organic Chemistry; vol. 19; (1954); p. 1882,1885,1887;",https://www.reaxys.com/reaxys/secured/hopinto.do?context=C&query=CNR.CNR%3D1406622&database=RX&origin=ReaxysOutput&ln=
,CCC=C=C,1731570.0,https://www.reaxys.com/reaxys/secured/hopinto.do?context=S&query=IDE.XRN%3D1731570&database=RX&origin=ReaxysOutput&ln=,(485 of 4000),591-95-7,"penta-1,2-diene; 1,2-pentadiene",CH2CCHC2H5,C5H8,68.1185,acyclic,,LVMTVPFRTKXRPH-UHFFFAOYSA-N,,,,Identification(73); Physical Data(39); Spectra(26),113.0,179.0,-137.26,,,,,,"Report; Rossini; Selected values of chemical thermodynamic properties;; ; Article; Forziati et al.; Journal of Research of the National Bureau of Standards (United States); vol. 45; (1950); p. 406,408;; ; Article; Streiff et al.; Journal of Research of the National Bureau of Standards (United States); vol. 45; (1950); p. 173,176;; ; Article; Messerly; Journal of Chemical and Engineering Data; vol. 15; (1970); p. 227,228,229,230,231,232;",https://www.reaxys.com/reaxys/secured/hopinto.do?context=C&query=CNR.CNR%3D1348733&database=RX&origin=ReaxysOutput&ln=
,C=C1CCC1,1847217.0,https://www.reaxys.com/reaxys/secured/hopinto.do?context=S&query=IDE.XRN%3D1847217&database=RX&origin=ReaxysOutput&ln=,(486 of 4000),1120-56-5,methylidenecyclobutane; methylene-cyclobutane,(CH2)4C,C5H8,68.1185,isocyclic,,QIRVGKYPAOQVNP-UHFFFAOYSA-N,,,,Identification(85); Physical Data(90); Spectra(40),529.0,454.0,-134.53,,,,,,"Article; Lebedev et al.; Journal of Chemical Thermodynamics; vol. 10; (1978); p. 809,811-814;",https://www.reaxys.com/reaxys/secured/hopinto.do?context=C&query=CNR.CNR%3D4285006&database=RX&origin=ReaxysOutput&ln=
,C=CC1CC1,2035993.0,https://www.reaxys.com/reaxys/secured/hopinto.do?context=S&query=IDE.XRN%3D2035993&database=RX&origin=ReaxysOutput&ln=,(487 of 4000),693-86-7,ethenylcyclopropane; vinyl cyclopropane,CH2CH(CHCH2CH2),C5H8,68.1185,isocyclic,,YIWFBNMYFYINAD-UHFFFAOYSA-N,,,,Identification(266); Physical Data(61); Spectra(40),193.0,424.0,133 - 134.5,,,,,,"Article; Zimmerman,H.E. et al.; Journal of the American Chemical Society; vol. 101; 21; (1979); p. 6367 - 6383;",https://www.reaxys.com/reaxys/secured/hopinto.do?context=C&query=CNR.CNR%3D75337&database=RX&origin=ReaxysOutput&ln=
,CC=C1CC1,2231728.0,https://www.reaxys.com/reaxys/secured/hopinto.do?context=S&query=IDE.XRN%3D2231728&database=RX&origin=ReaxysOutput&ln=,(488 of 4000),18631-83-9,ethylidene-cyclopropane; Ethyliden-cyclopropan; Vinyl-cyclopropan,(CH2)2CCHCH3,C5H8,68.1185,isocyclic,,ZIFNDRXSSPCNID-UHFFFAOYSA-N,,,,Identification(208); Physical Data(13); Spectra(6); Bioactivity(1),16.0,220.0,,,,,,,"Article; Chesick; Journal of the American Chemical Society; vol. 85; (1963); p. 2720,2722;",https://www.reaxys.com/reaxys/secured/hopinto.do?context=C&query=CNR.CNR%3D4452744&database=RX&origin=ReaxysOutput&ln=
,C[Be]N(C)C,3688920.0,https://www.reaxys.com/reaxys/secured/hopinto.do?context=S&query=IDE.XRN%3D3688920&database=RX&origin=ReaxysOutput&ln=,(489 of 4000),,methylberyllium(1+); dimethylamide; Methylberyllium(1+); Dimethylamid,CH3BeN(CH3)2,C3H9BeN,68.1233,acyclic,,OVBQVSRGIHQUSK-UHFFFAOYSA-N,,,,Identification(10); Physical Data(5),1.0,4.0,55 - 56,,,,,,"Article; Coates et al.; Journal of the Chemical Society; (1952); p. 4512,4513;",https://www.reaxys.com/reaxys/secured/hopinto.do?context=C&query=CNR.CNR%3D1282287&database=RX&origin=ReaxysOutput&ln=
,Cl[H].CO,3662830.0,https://www.reaxys.com/reaxys/secured/hopinto.do?context=S&query=IDE.XRN%3D3662830&database=RX&origin=ReaxysOutput&ln=,(491 of 4000),101752-05-0,methanol hydrochloride; methanol hydrochloric acid,CH3OH*HCl,CH4O*ClH,68.5031,acyclic,,FUKUFMFMCZIRNT-UHFFFAOYSA-N,,,,Identification(183); Physical Data(2); Spectra(10),159.0,321.0,-62,,,,,,Article; Maass; Mc Intosh; Journal of the American Chemical Society; vol. 35; p. 539;,https://www.reaxys.com/reaxys/secured/hopinto.do?context=C&query=CNR.CNR%3D1385479&database=RX&origin=ReaxysOutput&ln=
,Cl.NN,15709173.0,https://www.reaxys.com/reaxys/secured/hopinto.do?context=S&query=IDE.XRN%3D15709173&database=RX&origin=ReaxysOutput&ln=,(492 of 4000),2644-70-4,hydrazine hydrochloride; hydrazine monohydrochloride; hydrazinium chloride; hydroxylamine hydrochloride; diamide hydrochloride; hydrazinium hydrochloride; hydrazine dihydrochloride,H2NNH3(1+)*Cl(1-)=H2NNH2*HCl,Cl*H5N2,68.5061,,,BIVUUOPIAYRCAP-UHFFFAOYSA-N,,,,Identification(255); Physical Data(20); Spectra(5); Bioactivity(23),164.0,455.0,91.4,,,,,,"Article; Gilbert, C.; Cobb, A. W.; Journal of the American Chemical Society; vol. 57; (1935); p. 39;; ; Article; Gmelin Handbuch der Anorganischen Chemie; vol. NH4: MVol.2; 13, page 552 - 568; (from Gmelin)",https://www.reaxys.com/reaxys/secured/hopinto.do?context=C&query=CNR.CNR%3D7220320&database=RX&origin=ReaxysOutput&ln=
,BN1CCC1,102451.0,https://www.reaxys.com/reaxys/secured/hopinto.do?context=S&query=IDE.XRN%3D102451&database=RX&origin=ReaxysOutput&ln=,(493 of 4000),,1-boranyl-azetidine; 1-Boryl-azetidin,C3H8BN,C3H8BN,68.9142,heterocyclic,,DMFDJMYYUXDWOX-UHFFFAOYSA-N,,,,Identification(6); Physical Data(4),2.0,1.0,51.5 - 51.7,,,,,,"Article; Burg; Good; Journal of Inorganic and Nuclear Chemistry; vol. 2; (1956); p. 237,240;",https://www.reaxys.com/reaxys/secured/hopinto.do?context=C&query=CNR.CNR%3D975953&database=RX&origin=ReaxysOutput&ln=
,[Li+].[O]N(=O)=O,3565409.0,https://www.reaxys.com/reaxys/secured/hopinto.do?context=S&query=IDE.XRN%3D3565409&database=RX&origin=ReaxysOutput&ln=,(494 of 4000),,lithium nitrate; nitrate de lithium,Li(1+)*NO3(1-),Li*NO3,68.9459,Isotope or isotope containing compound; Coordination compound,,IRSLIXTZNCQOIE-UHFFFAOYSA-N,,,,Identification(2214); Physical Data(1529); Spectra(82),2271.0,3758.0,250.84,,,,,,"Article; Kefi, Sana; Boa, David; Hellali, Dalila; Zamali, Hmida; Journal of Thermal Analysis and Calorimetry; vol. 131; 2; (2018); p. 1567 - 1575;",https://www.reaxys.com/reaxys/secured/hopinto.do?context=C&query=CNR.CNR%3D71995227&database=RX&origin=ReaxysOutput&ln=
,O1C=CC=N1,103773.0,https://www.reaxys.com/reaxys/secured/hopinto.do?context=S&query=IDE.XRN%3D103773&database=RX&origin=ReaxysOutput&ln=,(497 of 4000),288-14-2,ISOXAZOLE,NC3H3O,C3H3NO,69.0629,heterocyclic,,CTAPFRYPJLPFDF-UHFFFAOYSA-N,,,,Identification(1828); Physical Data(108); Spectra(74); Bioactivity(101),243.0,2020.0,154 - 156,,,,,,Patent; RESEARCH TRIANGLE INSTITUTE; US6329520; (2001); B1;; ; Patent; RESEARCH TRIANGLE INSTITUTE; US5935953; (1999); A;; ; Patent; RESEARCH TRIANGLE INSTITUTE; US6531483; (2003); B1;,https://www.reaxys.com/reaxys/secured/hopinto.do?context=C&query=CNR.CNR%3D131095&database=RX&origin=ReaxysOutput&ln=
,O1C=CN=C1,103851.0,https://www.reaxys.com/reaxys/secured/hopinto.do?context=S&query=IDE.XRN%3D103851&database=RX&origin=ReaxysOutput&ln=,(498 of 4000),288-42-6,"oxazol; oxazole; 1,3-oxazole",C3H3NO,C3H3NO,69.0629,heterocyclic,,ZCQWOFVYLHDMMC-UHFFFAOYSA-N,,,,Identification(1690); Physical Data(50); Spectra(73); Bioactivity(107),456.0,2049.0,-82,,,,,,"Article; Rosso etal.; Comptes Rendus des Seances de l'Academie des Sciences, Serie C: Sciences Chimiques; vol. 280; (1975); p. 1057;",https://www.reaxys.com/reaxys/secured/hopinto.do?context=C&query=CNR.CNR%3D2997801&database=RX&origin=ReaxysOutput&ln=
,NC(=O)C#C,1698752.0,https://www.reaxys.com/reaxys/secured/hopinto.do?context=S&query=IDE.XRN%3D1698752&database=RX&origin=ReaxysOutput&ln=,(499 of 4000),7341-96-0,2-propynamide; propiolamide; propynamide; prop-2-ynamide; propargyl amide; propynoic acid amide; propiolic amide,HC2CONH2,C3H3NO,69.0629,acyclic,,HCJTYESURSHXNB-UHFFFAOYSA-N,,,,Identification(150); Physical Data(29); Spectra(49); Bioactivity(15),218.0,269.0,59,,supporting information,,,,"Article; Schroeder, Hilmar; Strohmeier, Gernot A.; Leypold, Mario; Nuijens, Timo; Quaedflieg, Peter J. L. M.; Breinbauer, Rolf; Advanced Synthesis and Catalysis; vol. 355; 9; (2013); p. 1799 - 1807;",https://www.reaxys.com/reaxys/secured/hopinto.do?context=C&query=CNR.CNR%3D35501661&database=RX&origin=ReaxysOutput&ln=
,CC(=O)C#N,1737633.0,https://www.reaxys.com/reaxys/secured/hopinto.do?context=S&query=IDE.XRN%3D1737633&database=RX&origin=ReaxysOutput&ln=,(500 of 4000),631-57-2,Acetyl cyanide; pyruvonitrile,C3H3ON,C3H3NO,69.0629,acyclic,,QLDHWVVRQCGZLE-UHFFFAOYSA-N,,,,Identification(128); Physical Data(31); Spectra(35); Bioactivity(20),612.0,387.0,150 - 151,,,,,,Article; Wislicenus; Silberstein; Chemische Berichte; vol. 43; (1910); p. 1835;,https://www.reaxys.com/reaxys/secured/hopinto.do?context=C&query=CNR.CNR%3D1465944&database=RX&origin=ReaxysOutput&ln=
,O=C1NC=C1,14761832.0,https://www.reaxys.com/reaxys/secured/hopinto.do?context=S&query=IDE.XRN%3D14761832&database=RX&origin=ReaxysOutput&ln=,(501 of 4000),106104-47-6,allyl lactam,C3H3NO,C3H3NO,69.0629,,,FADJIMDKDQYNCG-UHFFFAOYSA-N,,,,Identification(7); Physical Data(1); Spectra(1),2.0,5.0,136.5 - 137.5,,,,,,Patent; AKZO NOBEL NV; US4563525; (1986); A;; ; Patent; AKZO NOBEL NV; US4511568; (1985); A;,https://www.reaxys.com/reaxys/secured/hopinto.do?context=C&query=CNR.CNR%3D60275&database=RX&origin=ReaxysOutput&ln=
,N1C=CN=N1,104766.0,https://www.reaxys.com/reaxys/secured/hopinto.do?context=S&query=IDE.XRN%3D104766&database=RX&origin=ReaxysOutput&ln=,(502 of 4000),288-36-8,"1,2,3-triazole; Triazole",C2N3H3,C2H3N3,69.0659,heterocyclic,,QWENRTYMTSOGBR-UHFFFAOYSA-N,,,,Identification(8953); Physical Data(72); Spectra(41); Bioactivity(496),1278.0,9660.0,22 - 23,,Paragraph 0041; 0046; 0051,,,,Patent; SHIJIAZHUANG WANYE CHEMICAL; CN106946803; (2017); A;,https://www.reaxys.com/reaxys/secured/hopinto.do?context=C&query=CNR.CNR%3D71905999&database=RX&origin=ReaxysOutput&ln=
,N1C=NC=N1,104767.0,https://www.reaxys.com/reaxys/secured/hopinto.do?context=S&query=IDE.XRN%3D104767&database=RX&origin=ReaxysOutput&ln=,(503 of 4000),288-88-0,"1,2,4-Triazole; 1,2,4-1H-triazole",(C2H3N3),C2H3N3,69.0659,heterocyclic,,NSPMIYGKQJPBQR-UHFFFAOYSA-N,,,,Identification(2473); Physical Data(334); Spectra(103); Bioactivity(320),5251.0,5797.0,124,,,,,,"Article; Kumasaki, Mieko; Gontani, Saori; Mori, Kanae; Matsumoto, Shinya; Inoue, Kazuki; Acta Crystallographica Section C: Structural Chemistry; vol. 77; (2021); p. 197 - 201;",https://www.reaxys.com/reaxys/secured/hopinto.do?context=C&query=CNR.CNR%3D84557113&database=RX&origin=ReaxysOutput&ln=
,N1C=NN=C1,605619.0,https://www.reaxys.com/reaxys/secured/hopinto.do?context=S&query=IDE.XRN%3D605619&database=RX&origin=ReaxysOutput&ln=,(504 of 4000),288-88-0,"1,2,4-Triazole",N3C2H3,C2H3N3,69.0659,heterocyclic,,NSPMIYGKQJPBQR-UHFFFAOYSA-N,,,,Identification(147); Physical Data(27); Spectra(14); Bioactivity(20),305.0,348.0,116 - 118,ethanol,,,,,Article; Britsun; Pikun; Ryabitskii; Lozinskii; Chemistry of Heterocyclic Compounds; vol. 47; 8; (2011); p. 970 - 976;,https://www.reaxys.com/reaxys/secured/hopinto.do?context=C&query=CNR.CNR%3D20093997&database=RX&origin=ReaxysOutput&ln=
,N1N=CC=N1,741945.0,https://www.reaxys.com/reaxys/secured/hopinto.do?context=S&query=IDE.XRN%3D741945&database=RX&origin=ReaxysOutput&ln=,(505 of 4000),288-36-8; 288-35-7,"1 ,2,3-Triazole",C2H3N3,C2H3N3,69.0659,heterocyclic,,QWENRTYMTSOGBR-UHFFFAOYSA-N,,,,Identification(139); Physical Data(18); Spectra(15),403.0,362.0,204 - 206,acetone; H2O,,,,,"Article; Jovanovic, Misa V.; Heterocycles; vol. 24; 4; (1986); p. 951 - 966;",https://www.reaxys.com/reaxys/secured/hopinto.do?context=C&query=CNR.CNR%3D5802595&database=RX&origin=ReaxysOutput&ln=
,N=CNC#N,1740262.0,https://www.reaxys.com/reaxys/secured/hopinto.do?context=S&query=IDE.XRN%3D1740262&database=RX&origin=ReaxysOutput&ln=,(506 of 4000),6784-19-6,Dicyanoformamidin; N-cyano-formamidine; o-cyano-amidine; Formimidoyl-carbamonitril; Cyanamino-imino-methan; N-Cyan-formamidin; cyanoformamidine,C2H3N3,C2H3N3,69.0659,acyclic,,UABPXJLZXHRTBQ-UHFFFAOYSA-N,,,,Identification(9); Physical Data(1),4.0,6.0,137 - 138,ethanol,,,,,Article; Shirai et al.; Journal of Organic Chemistry; vol. 23; (1958); p. 100;,https://www.reaxys.com/reaxys/secured/hopinto.do?context=C&query=CNR.CNR%3D820520&database=RX&origin=ReaxysOutput&ln=
,NC=NC#N,2958880.0,https://www.reaxys.com/reaxys/secured/hopinto.do?context=S&query=IDE.XRN%3D2958880&database=RX&origin=ReaxysOutput&ln=,(507 of 4000),6784-19-6,Cyan-formamidin,C2H3N3,C2H3N3,69.0659,acyclic,,UABPXJLZXHRTBQ-UHFFFAOYSA-N,,,,Identification(7); Physical Data(1),3.0,2.0,136 - 137,ethanol,,,,,"Article; Kreutzberger,A.; Tetrahedron; vol. 28; (1972); p. 4877 - 4880;",https://www.reaxys.com/reaxys/secured/hopinto.do?context=C&query=CNR.CNR%3D91177&database=RX&origin=ReaxysOutput&ln=
,C=NC[13C]#N,7524843.0,https://www.reaxys.com/reaxys/secured/hopinto.do?context=S&query=IDE.XRN%3D7524843&database=RX&origin=ReaxysOutput&ln=,(508 of 4000),,,C2(13)CH4N2,C3H4N2,69.0672,acyclic,,GFZMFCVDDFHSJK-VQEHIDDOSA-N,,,,Identification(5); Physical Data(1),2.0,1.0,124 - 126,,,,,,"Article; Neugebauer, Witold; Pinet, Eric; Kim, Munsok; Carey, Paul R.; Canadian Journal of Chemistry; vol. 74; 3; (1996); p. 341 - 343;",https://www.reaxys.com/reaxys/secured/hopinto.do?context=C&query=CNR.CNR%3D6020119&database=RX&origin=ReaxysOutput&ln=
,[2H]C1=NNC=C1,4956160.0,https://www.reaxys.com/reaxys/secured/hopinto.do?context=S&query=IDE.XRN%3D4956160&database=RX&origin=ReaxysOutput&ln=,(509 of 4000),53848-78-5,pyrazole-3-d; PYRAZOLE-D1,C3H3DN2,C3H4N2,69.0702,heterocyclic,,WTKZEGDFNFYCGP-VMNATFBRSA-N,,,,Identification(6); Physical Data(1),1.0,1.0,64 - 66,petroleum ether,,,,,"Article; Katritzky, Alan R.; Rewcastle, Gordon W.; Fan, Wei-Qiang; Journal of Organic Chemistry; vol. 53; 24; (1988); p. 5685 - 5689;",https://www.reaxys.com/reaxys/secured/hopinto.do?context=C&query=CNR.CNR%3D5638280&database=RX&origin=ReaxysOutput&ln=
,C=[15N]CC#N,7524844.0,https://www.reaxys.com/reaxys/secured/hopinto.do?context=S&query=IDE.XRN%3D7524844&database=RX&origin=ReaxysOutput&ln=,(510 of 4000),,,C3H4N(15)N,C3H4N2,69.0715,acyclic,,GFZMFCVDDFHSJK-HOSYLAQJSA-N,,,,Identification(5); Physical Data(1),2.0,1.0,124 - 126,,,,,,"Article; Neugebauer, Witold; Pinet, Eric; Kim, Munsok; Carey, Paul R.; Canadian Journal of Chemistry; vol. 74; 3; (1996); p. 341 - 343;",https://www.reaxys.com/reaxys/secured/hopinto.do?context=C&query=CNR.CNR%3D6020119&database=RX&origin=ReaxysOutput&ln=
,C1NCC=C1,103173.0,https://www.reaxys.com/reaxys/secured/hopinto.do?context=S&query=IDE.XRN%3D103173&database=RX&origin=ReaxysOutput&ln=,(511 of 4000),109-96-6,3-Pyrroline; Pyrroline,HNC4H6,C4H7N,69.1063,heterocyclic,,JVQIKJMSUIMUDI-UHFFFAOYSA-N,,,,Identification(235); Physical Data(44); Spectra(20); Bioactivity(32),369.0,555.0,-66.16,,,,,,"Article; Rzepiński, Patryk; Nowosielska, Bernadeta; Cyrański, Michał K.; Boese, Roland; Dobrzycki, Łukasz; Crystal Growth and Design; vol. 19; 8; (2019); p. 4721 - 4730;",https://www.reaxys.com/reaxys/secured/hopinto.do?context=C&query=CNR.CNR%3D77499265&database=RX&origin=ReaxysOutput&ln=
,CNCC#C,1071242.0,https://www.reaxys.com/reaxys/secured/hopinto.do?context=S&query=IDE.XRN%3D1071242&database=RX&origin=ReaxysOutput&ln=,(512 of 4000),35161-71-8,N-methylpropargylamine; methyl(propargyl)amine,NH(CH3)CH2C2H,C4H7N,69.1063,acyclic,,HQFYIDOMCULPIW-UHFFFAOYSA-N,,,,Identification(117); Physical Data(15); Spectra(16); Bioactivity(29),899.0,525.0,80 - 86,,,,,,"Article; Dumpis et al.; Latvijas PSR Zinatnu Akademijas Vestis, Kimijas Serija; (1978); p. 104; Chem.Abstr.; vol. 88; 190446n;",https://www.reaxys.com/reaxys/secured/hopinto.do?context=C&query=CNR.CNR%3D4204165&database=RX&origin=ReaxysOutput&ln=
,CC(C)C#N,1340512.0,https://www.reaxys.com/reaxys/secured/hopinto.do?context=S&query=IDE.XRN%3D1340512&database=RX&origin=ReaxysOutput&ln=,(513 of 4000),78-82-0,Isobutyronitrile,CH(CH3)2CN,C4H7N,69.1063,acyclic,,LRDFRRGEGBBSRN-UHFFFAOYSA-N,,,,Identification(509); Physical Data(144); Spectra(78); Bioactivity(102),1666.0,1868.0,101 - 102,,,,,,"Article; Sagawa et al.; Kogyo Kagaku zasshi / Journal of the Society of Chemical Industry; vol. 72; (1969); p. 729,731; Chem.Abstr.; vol. 71; 39484; (1969);",https://www.reaxys.com/reaxys/secured/hopinto.do?context=C&query=CNR.CNR%3D2869367&database=RX&origin=ReaxysOutput&ln=
,CCCC#N,1361452.0,https://www.reaxys.com/reaxys/secured/hopinto.do?context=S&query=IDE.XRN%3D1361452&database=RX&origin=ReaxysOutput&ln=,(514 of 4000),109-74-0,Butyronitrile; propyl cyanide,CH3(CH2)2CN,C4H7N,69.1063,acyclic,,KVNRLNFWIYMESJ-UHFFFAOYSA-N,,,,Identification(864); Physical Data(551); Spectra(99); Bioactivity(116),1299.0,2182.0,-112,,,,,,"Article; Van Dvyne; Reilley; Analytical Chemistry; vol. 44; (1972); p. 142,151;",https://www.reaxys.com/reaxys/secured/hopinto.do?context=C&query=CNR.CNR%3D3970020&database=RX&origin=ReaxysOutput&ln=
,CC1N=C1C,1560271.0,https://www.reaxys.com/reaxys/secured/hopinto.do?context=S&query=IDE.XRN%3D1560271&database=RX&origin=ReaxysOutput&ln=,(515 of 4000),63989-39-9,"2,3-Dimethyl-2H-azirin",C4H7N,C4H7N,69.1063,heterocyclic,,HOYKXQHOQDFZIK-UHFFFAOYSA-N,,,,Identification(7); Physical Data(1); Spectra(1),2.0,2.0,78,,,,,,"Article; Gilchrist et al.; Journal of the Chemical Society. Perkin transactions I; (1973); p. 555,560;",https://www.reaxys.com/reaxys/secured/hopinto.do?context=C&query=CNR.CNR%3D2565599&database=RX&origin=ReaxysOutput&ln=