Structure: Image,SMILES,Substance Identification: Reaxys Registry Number,Links to Reaxys,Data Count,CAS Registry Number,Chemical Name,Linear Structure Formula,Molecular Formula,Molecular Weight,Type of Substance,Type and Modification,InChI Key,Composition: Comp. Name,Composition: Comp. Conc.,Composition: Comp. Attrib.,Field Availability,Number of Reactions,Number of References,Melting Point: Melting Point [C],Solvent (Melting Point),Location,Comment (Melting Point),Crystallizes With,Amount (Melting Point) [mol],References,Links to Reaxys.1
,OCC#C,506003.0,https://www.reaxys.com/reaxys/secured/hopinto.do?context=S&query=IDE.XRN%3D506003&database=RX&origin=ReaxysOutput&ln=,(235 of 4000),107-19-7,propargyl alcohol; Prop-2-ynyl alcohol; propargylic alcohol; propargyl acohol; 2-propyn-1-ol,(CCH2OH)CH,C3H4O,56.0642,acyclic,,TVDSBUOJIPERQY-UHFFFAOYSA-N,,,,Identification(2263); Physical Data(189); Spectra(84); Bioactivity(563),10905.0,10674.0,-48.16,,,,,,"Article; Gordon; Volodina; Mikhailov; Russian Journal of Physical Chemistry; vol. 88; 12; (2014); p. 2129 - 2136; Zh. Fiz. Khim.; vol. 88; 12; (2014); p. 1955 - 1962,8;",https://www.reaxys.com/reaxys/secured/hopinto.do?context=C&query=CNR.CNR%3D68261875&database=RX&origin=ReaxysOutput&ln=
,C=CC=O,741856.0,https://www.reaxys.com/reaxys/secured/hopinto.do?context=S&query=IDE.XRN%3D741856&database=RX&origin=ReaxysOutput&ln=,(236 of 4000),107-02-8,acrolein; 2-propenal; Propenal,H2CCHC(O)H,C3H4O,56.0642,acyclic,,HGINCPLSRVDWNT-UHFFFAOYSA-N,,,,Identification(8151); Physical Data(253); Spectra(176); Bioactivity(1037),9135.0,15061.0,-87.7,,,,,,Article; Timmermans; Bulletin des Societes Chimiques Belges; vol. 31; (1922); p. 390; Bulletin des Societes Chimiques Belges; vol. 36; (1927); p. 505; Chemisches Zentralblatt; vol. 94; III; (1923); p. 1137;,https://www.reaxys.com/reaxys/secured/hopinto.do?context=C&query=CNR.CNR%3D1318284&database=RX&origin=ReaxysOutput&ln=
,CC=C=O,1732373.0,https://www.reaxys.com/reaxys/secured/hopinto.do?context=S&query=IDE.XRN%3D1732373&database=RX&origin=ReaxysOutput&ln=,(237 of 4000),6004-44-0,prop-1-en-1-one; methyl ketene,CH3CHCO,C3H4O,56.0642,acyclic,,UYLUJGRCKKSWHS-UHFFFAOYSA-N,,,,Identification(186); Physical Data(15); Spectra(21),120.0,270.0,113 - 114,,,,,,Patent; PFIZER INC; US5208343; (1993); A;,https://www.reaxys.com/reaxys/secured/hopinto.do?context=C&query=CNR.CNR%3D7140043&database=RX&origin=ReaxysOutput&ln=
,CNC#N,506027.0,https://www.reaxys.com/reaxys/secured/hopinto.do?context=S&query=IDE.XRN%3D506027&database=RX&origin=ReaxysOutput&ln=,(238 of 4000),4674-68-4,methylcyanamide; Methylcyanamid; N-methylcyanamide,CH3NHCN,C2H4N2,56.0672,acyclic,,MCLITRXWHZUNCQ-UHFFFAOYSA-N,,,,Identification(22); Physical Data(1); Spectra(4),59.0,58.0,-50 - -40,,,,,,"Article; Kitawaki et al.; Nippon Kagaku Zasshi; vol. 78; (1957); p. 567; Chem.Abstr.; (1959); p. 5124;; ; Article; Kitawaki; Sugino; Journal of Organic Chemistry; vol. 25; (1960); p. 1043,1044;",https://www.reaxys.com/reaxys/secured/hopinto.do?context=C&query=CNR.CNR%3D1255696&database=RX&origin=ReaxysOutput&ln=
,NCC#N,773694.0,https://www.reaxys.com/reaxys/secured/hopinto.do?context=S&query=IDE.XRN%3D773694&database=RX&origin=ReaxysOutput&ln=,(239 of 4000),540-61-4,2-aminoacetonitrile; aminoacetonitrile,NCCH2NH2,C2H4N2,56.0672,acyclic,,DFNYGALUNNFWKJ-UHFFFAOYSA-N,,,,Identification(269); Physical Data(52); Spectra(19); Bioactivity(43),754.0,683.0,44,,,,,,Article; Yalkowsky; Valvani; Journal of Pharmaceutical Sciences; vol. 69; 8; (1980); p. 912 - 922;,https://www.reaxys.com/reaxys/secured/hopinto.do?context=C&query=CNR.CNR%3D5798737&database=RX&origin=ReaxysOutput&ln=
,C=NN=C,1697389.0,https://www.reaxys.com/reaxys/secured/hopinto.do?context=S&query=IDE.XRN%3D1697389&database=RX&origin=ReaxysOutput&ln=,(240 of 4000),503-27-5,methanalazine; Formaldazin; formaldazine; Methanalazin,H2CNNCH2,C2H4N2,56.0672,acyclic,,NBHLEUNJGNIKRR-UHFFFAOYSA-N,,,,Identification(401); Physical Data(11); Spectra(12),10.0,413.0,-48,,,,,,Article; Neureiter; Journal of the American Chemical Society; vol. 81; (1959); p. 2910;,https://www.reaxys.com/reaxys/secured/hopinto.do?context=C&query=CNR.CNR%3D785232&database=RX&origin=ReaxysOutput&ln=
,[H].O.[K],8128138.0,https://www.reaxys.com/reaxys/secured/hopinto.do?context=S&query=IDE.XRN%3D8128138&database=RX&origin=ReaxysOutput&ln=,(241 of 4000),,potassium hydroxide; KOH,HO(1-)*K(1+),HKO,56.1056,,,ADDXCZCFDGYBFJ-UHFFFAOYSA-N,,,,Identification(3752); Physical Data(692); Spectra(47); Bioactivity(519),6521.0,10223.0,360,,Paragraph [0050],,,,Patent; OPGEN INC; WO2016/33077; (2016); A1;,https://www.reaxys.com/reaxys/secured/hopinto.do?context=C&query=CNR.CNR%3D68495464&database=RX&origin=ReaxysOutput&ln=
,CC(C)=C,773645.0,https://www.reaxys.com/reaxys/secured/hopinto.do?context=S&query=IDE.XRN%3D773645&database=RX&origin=ReaxysOutput&ln=,(242 of 4000),115-11-7,isobutene; isobutylen,CH3CCH2CH3,C4H8,56.1075,acyclic,,VQTUBCCKSQIDNK-UHFFFAOYSA-N,,,,Identification(891); Physical Data(567); Spectra(127); Bioactivity(392),6851.0,7597.0,-140.42,,,,,,Article; Glasgow et al.; Analytical Chemistry; vol. 20; (1948); p. 417;,https://www.reaxys.com/reaxys/secured/hopinto.do?context=C&query=CNR.CNR%3D1327590&database=RX&origin=ReaxysOutput&ln=
,CCC=C,1098262.0,https://www.reaxys.com/reaxys/secured/hopinto.do?context=S&query=IDE.XRN%3D1098262&database=RX&origin=ReaxysOutput&ln=,(243 of 4000),106-98-9,1-Butene; 1-butylene,CH3CH2C2H3,C4H8,56.1075,acyclic,,VXNZUUAINFGPBY-UHFFFAOYSA-N,,,,Identification(8076); Physical Data(663); Spectra(136); Bioactivity(595),2625.0,11785.0,-185.35,,,,,,"Article; Yamamuro, Osamu; Matsuo, Takasuke; Takeda, Kiyoshi; Kanaya, Toshiji; Kawaguchi, Tatsuya; Kaji, Keisuke; Journal of Chemical Physics; vol. 105; 2; (1996); p. 732 - 737;",https://www.reaxys.com/reaxys/secured/hopinto.do?context=C&query=CNR.CNR%3D6042226&database=RX&origin=ReaxysOutput&ln=
,C\C=C/C,1361341.0,https://www.reaxys.com/reaxys/secured/hopinto.do?context=S&query=IDE.XRN%3D1361341&database=RX&origin=ReaxysOutput&ln=,(244 of 4000),590-18-1,(Z)-2-Butene; cis-2-Butene,CH3(CH)2CH3,C4H8,56.1075,acyclic,,IAQRGUVFOMOMEM-ARJAWSKDSA-N,,,,Identification(1853); Physical Data(430); Spectra(114); Bioactivity(199),1797.0,3962.0,-138.91,,,,,,Article; Glasgow et al.; Analytical Chemistry; vol. 20; (1948); p. 417;; ; Report; Rossini; Selected values of chemical thermodynamic properties;,https://www.reaxys.com/reaxys/secured/hopinto.do?context=C&query=CNR.CNR%3D1327590&database=RX&origin=ReaxysOutput&ln=
,CC=CC,1718755.0,https://www.reaxys.com/reaxys/secured/hopinto.do?context=S&query=IDE.XRN%3D1718755&database=RX&origin=ReaxysOutput&ln=,(245 of 4000),107-01-7,2-buten; butene-2,CH2CHCH2CH3,C4H8,56.1075,acyclic,,IAQRGUVFOMOMEM-UHFFFAOYSA-N,,,,Identification(103); Physical Data(72); Spectra(26); Bioactivity(73),1204.0,1345.0,-127,,,mixtures of higher-boiling buten-(2) and lower-boiling butene-(2),,,"Article; Coffin; Maass; Journal of the American Chemical Society; vol. 50; (1928); p. 1433; Trans.roy.Soc.Canada; vol. &lt;3&gt;21; p. III,38; Chemisches Zentralblatt; vol. 99; I; (1928); p. 1643;",https://www.reaxys.com/reaxys/secured/hopinto.do?context=C&query=CNR.CNR%3D1314973&database=RX&origin=ReaxysOutput&ln=
,C\C=C\C,1718756.0,https://www.reaxys.com/reaxys/secured/hopinto.do?context=S&query=IDE.XRN%3D1718756&database=RX&origin=ReaxysOutput&ln=,(246 of 4000),624-64-6,2-butene; trans-2-Butene; (E)-2-butene,CH3(CH)2CH3,C4H8,56.1075,acyclic,,IAQRGUVFOMOMEM-ONEGZZNKSA-N,,,,Identification(2773); Physical Data(428); Spectra(113); Bioactivity(245),1793.0,4890.0,-105.6,,,,,,Article; Oka; Sato; Bulletin of the Chemical Society of Japan; vol. 42; (1969); p. 582;,https://www.reaxys.com/reaxys/secured/hopinto.do?context=C&query=CNR.CNR%3D5238224&database=RX&origin=ReaxysOutput&ln=
,CC1CC1,1900181.0,https://www.reaxys.com/reaxys/secured/hopinto.do?context=S&query=IDE.XRN%3D1900181&database=RX&origin=ReaxysOutput&ln=,(247 of 4000),594-11-6,methylcyclopropane; Methylcyclopropan; 1-methylcyclopropane; monomethyl Cyclopropane,C3H5CH3,C4H8,56.1075,isocyclic,,VNXBKJFUJUWOCW-UHFFFAOYSA-N,,,,Identification(212); Physical Data(41); Spectra(26); Bioactivity(1),103.0,368.0,-177.16,,,,,,"Article; Gragson et al.; Journal of the American Chemical Society; vol. 75; (1953); p. 3344,3347;",https://www.reaxys.com/reaxys/secured/hopinto.do?context=C&query=CNR.CNR%3D1731214&database=RX&origin=ReaxysOutput&ln=
,C1CCC1,1900183.0,https://www.reaxys.com/reaxys/secured/hopinto.do?context=S&query=IDE.XRN%3D1900183&database=RX&origin=ReaxysOutput&ln=,(248 of 4000),287-23-0,cyclobutane; Cyclobutan,(CH2)4,C4H8,56.1075,isocyclic,,PMPVIKIVABFJJI-UHFFFAOYSA-N,,,,Identification(1075); Physical Data(108); Spectra(54),106.0,1356.0,74 - 76,,supporting information,,,,"Article; McKeever, Caitriona; Kaiser, Marcel; Rozas, Isabel; Journal of Medicinal Chemistry; vol. 56; 3; (2013); p. 700 - 711;",https://www.reaxys.com/reaxys/secured/hopinto.do?context=C&query=CNR.CNR%3D35466778&database=RX&origin=ReaxysOutput&ln=
,[SiH3]C#C,1918249.0,https://www.reaxys.com/reaxys/secured/hopinto.do?context=S&query=IDE.XRN%3D1918249&database=RX&origin=ReaxysOutput&ln=,(249 of 4000),1066-27-9,silylacetylene,HCCSiH3,C2H4Si,56.1393,acyclic,,SRNLFSKWPCUYHC-UHFFFAOYSA-N,,,,Identification(27); Physical Data(10); Spectra(11),8.0,47.0,-90.7,,,,,,"Article; Ebsworth; Frankiss; Journal of the Chemical Society; (1963); p. 661,665;",https://www.reaxys.com/reaxys/secured/hopinto.do?context=C&query=CNR.CNR%3D3791011&database=RX&origin=ReaxysOutput&ln=
,[H]N=BOC,16831685.0,https://www.reaxys.com/reaxys/secured/hopinto.do?context=S&query=IDE.XRN%3D16831685&database=RX&origin=ReaxysOutput&ln=,(252 of 4000),,B-Methoxyborazin,B(OCH3)NH,CH4BNO,56.8599,,,ZVXSTUPLJYNRRK-UHFFFAOYSA-N,,,,Identification(5); Physical Data(2),2.0,3.0,62.5,,,,,,"Article; Wiberg, E.; Naturwissenschaften; vol. 35; (1948); p. 212 - 218;; ; Article; Gmelin Handbuch der Anorganischen Chemie; vol. B: SVol.1; 4.12, page 245 - 248; (from Gmelin)",https://www.reaxys.com/reaxys/secured/hopinto.do?context=C&query=CNR.CNR%3D7368798&database=RX&origin=ReaxysOutput&ln=
,[H]B([H])N(C)C,1071192.0,https://www.reaxys.com/reaxys/secured/hopinto.do?context=S&query=IDE.XRN%3D1071192&database=RX&origin=ReaxysOutput&ln=,(253 of 4000),1838-13-7,dimethylamine borane; Dimethylamino-boran; dimethylaminoborane,BH2N(CH3)2,C2H8BN,56.9032,acyclic,,SDWBRBLWPQDUQP-UHFFFAOYSA-N,,,,Identification(85); Physical Data(21); Spectra(65),175.0,240.0,77,,,,,,"Article; Zhigach,A.F. et al.; Journal of general chemistry of the USSR; vol. 43; (1973); p. 1941 - 1945; Zhurnal Obshchei Khimii; vol. 43; (1973); p. 1958 - 1963;",https://www.reaxys.com/reaxys/secured/hopinto.do?context=C&query=CNR.CNR%3D269587&database=RX&origin=ReaxysOutput&ln=
,CB(C)N,1730813.0,https://www.reaxys.com/reaxys/secured/hopinto.do?context=S&query=IDE.XRN%3D1730813&database=RX&origin=ReaxysOutput&ln=,(254 of 4000),15973-91-8,B.B-Dimethyl-borazen; Amino-dimethyl-boran,(CH3)2BNH2,C2H8BN,56.9032,acyclic,,NHYSHMZGBQMTLC-UHFFFAOYSA-N,,,,Identification(19); Physical Data(19); Spectra(20),35.0,64.0,-196,,,Melting point:beim schnellen Abkuehlen.,,,"Article; Wiberg; Hertwig; Bolz; Zeitschrift fur Anorganische und Allgemeine Chemie; vol. 256; (1948); p. 202,215;; ; Article; Schlesinger; Horvitz; Burg; Journal of the American Chemical Society; vol. 58; (1936); p. 407;",https://www.reaxys.com/reaxys/secured/hopinto.do?context=C&query=CNR.CNR%3D1232201&database=RX&origin=ReaxysOutput&ln=
,C1CN1.[H]B([H])[H],3666368.0,https://www.reaxys.com/reaxys/secured/hopinto.do?context=S&query=IDE.XRN%3D3666368&database=RX&origin=ReaxysOutput&ln=,(255 of 4000),,aziridin borane; aziridine; compound with borane; Aziridin; Verbindung mit Boran,(CH2)2NH*BH3,BH3*C2H5N,56.9032,heterocyclic; Coordination compound,,KQUCJCIAXJLCBM-UHFFFAOYSA-N,,,,Identification(8); Physical Data(1),1.0,6.0,40,,,,,,"Article; Burg; Good; Journal of Inorganic and Nuclear Chemistry; vol. 2; (1956); p. 237,240;",https://www.reaxys.com/reaxys/secured/hopinto.do?context=C&query=CNR.CNR%3D975953&database=RX&origin=ReaxysOutput&ln=
,N.F,14271984.0,https://www.reaxys.com/reaxys/secured/hopinto.do?context=S&query=IDE.XRN%3D14271984&database=RX&origin=ReaxysOutput&ln=,(257 of 4000),,ammonium bifluoride; ammonium hydrogen difluoride; ammonium hydrogen fluoride,H3N*2FH,2FH*H3N,57.0432,Coordination compound,,LDDQLRUQCUTJBB-UHFFFAOYSA-N,,,,Identification(8); Physical Data(5); Spectra(1),321.0,72.0,124.84,,,,,,"Article; Esquivel, Marcelo R.; Resentera, Alexander C.; Rodriguez, Mario H.; Rosales, Gustavo D.; Thermochimica Acta; vol. 689; (2020);",https://www.reaxys.com/reaxys/secured/hopinto.do?context=C&query=CNR.CNR%3D79579213&database=RX&origin=ReaxysOutput&ln=
,[NH4+].[F-].F[H],14729378.0,https://www.reaxys.com/reaxys/secured/hopinto.do?context=S&query=IDE.XRN%3D14729378&database=RX&origin=ReaxysOutput&ln=,(258 of 4000),,ammonium bifluoride; ammonium hydrofluoride; ammonium hydrogen difluorid; ammonium hydrogen difluoride; ammonium hydrogen fluoride; ammonium hydrodifluoride,H4N(1+)*F(1-)*FH,FH*F*H4N,57.0432,,,KVBCYCWRDBDGBG-UHFFFAOYSA-N,,,,Identification(289); Physical Data(17); Spectra(1),136.0,374.0,126.8,,,,,,Article; Rimkevich; Pushkin; Malovitskii; Dem'Yanova; Girenko; Russian Journal of Applied Chemistry; vol. 82; 1; (2009); p. 6 - 11; (from Gmelin),https://www.reaxys.com/reaxys/secured/hopinto.do?context=C&query=CNR.CNR%3D8762735&database=RX&origin=ReaxysOutput&ln=
,F[H-]F.[H][N+]([H])([H])[H],16480812.0,https://www.reaxys.com/reaxys/secured/hopinto.do?context=S&query=IDE.XRN%3D16480812&database=RX&origin=ReaxysOutput&ln=,(259 of 4000),,ammonium hydrogen fluoride; ammonium hydrogen difluoride; ammonium hydrofluoride; ammonium hydrodifluoride; ammonium dihydrofluoride; ammonium bifluoride; ammonium hydrogen bifluoride,NH4(1+)*HF2(1-)=NH4FHF,F2H*H4N,57.0432,Coordination compound,,XIONBZYFLSJNBW-UHFFFAOYSA-O,,,,Identification(6); Physical Data(25); Spectra(7),426.0,270.0,,,,,,,Article; Rimkevich; Pushkin; Malovitskii; Girenko; Russian Journal of Applied Chemistry; vol. 84; 3; (2011); p. 345 - 350; (from Gmelin),https://www.reaxys.com/reaxys/secured/hopinto.do?context=C&query=CNR.CNR%3D9071728&database=RX&origin=ReaxysOutput&ln=
,O=C1CN1,385649.0,https://www.reaxys.com/reaxys/secured/hopinto.do?context=S&query=IDE.XRN%3D385649&database=RX&origin=ReaxysOutput&ln=,(260 of 4000),34734-31-1,Glycin-N-carboxyanhydrid,C2H3NO,C2H3NO,57.0519,heterocyclic,,SNPIMBDCLUUDST-UHFFFAOYSA-N,,,,Identification(20); Physical Data(1),,16.0,99 - 100,,,,,,"Article; Cernosek et al.; Biochemistry; vol. 13; (1974); p. 1252,1257;",https://www.reaxys.com/reaxys/secured/hopinto.do?context=C&query=CNR.CNR%3D2590438&database=RX&origin=ReaxysOutput&ln=
,CC#N=O,605329.0,https://www.reaxys.com/reaxys/secured/hopinto.do?context=S&query=IDE.XRN%3D605329&database=RX&origin=ReaxysOutput&ln=,(261 of 4000),7063-95-8,acetonitrile-N-oxide; acetonitrile oxide,CH3CNO,C2H3NO,57.0519,acyclic,,PFCUZDIEKKTHCH-UHFFFAOYSA-N,,,,Identification(56); Physical Data(8); Spectra(16),155.0,137.0,-5,,,,,,"Article; Zinner,G.; Guenther,H.; Angewandte Chemie; vol. 76; (1964); p. 440;",https://www.reaxys.com/reaxys/secured/hopinto.do?context=C&query=CNR.CNR%3D100018&database=RX&origin=ReaxysOutput&ln=
,[2H]C(=C)C=O,4361361.0,https://www.reaxys.com/reaxys/secured/hopinto.do?context=S&query=IDE.XRN%3D4361361&database=RX&origin=ReaxysOutput&ln=,(262 of 4000),10317-37-0,acrolein-d1; acrolein-2-d; <2-2H>acrolein; <2-2H1>acrolein; 2-[D1]acrolein,C3H3DO,C3H4O,57.0562,acyclic,,HGINCPLSRVDWNT-VMNATFBRSA-N,,,,Identification(6); Physical Data(2); Spectra(1),7.0,7.0,115 - 117,diethyl ether; petroleum ether,,,,,"Article; Klass, Gunter; Sheldon, John C.; Bowie, John H.; Journal of the Chemical Society. Perkin transactions II; 9; (1983); p. 1337 - 1341;",https://www.reaxys.com/reaxys/secured/hopinto.do?context=C&query=CNR.CNR%3D5605122&database=RX&origin=ReaxysOutput&ln=
,C[C@@H]1CN1,79760.0,https://www.reaxys.com/reaxys/secured/hopinto.do?context=S&query=IDE.XRN%3D79760&database=RX&origin=ReaxysOutput&ln=,(263 of 4000),83647-99-8,(2R)-2-methylaziridine,C3H7N,C3H7N,57.0953,heterocyclic,,OZDGMOYKSFPLSE-GSVOUGTGSA-N,,,,Identification(7); Physical Data(6); Spectra(1),9.0,7.0,-44,,,,,,"Article; Minoura et al.; Journal of the American Chemical Society; vol. 81; (1959); p. 4689,4690;",https://www.reaxys.com/reaxys/secured/hopinto.do?context=C&query=CNR.CNR%3D1265127&database=RX&origin=ReaxysOutput&ln=
,C[C@H]1CN1,79761.0,https://www.reaxys.com/reaxys/secured/hopinto.do?context=S&query=IDE.XRN%3D79761&database=RX&origin=ReaxysOutput&ln=,(264 of 4000),52340-20-2,(S)-2-methylaziridine; (2S)-2-methylaziridine,C3H7N,C3H7N,57.0953,heterocyclic,,OZDGMOYKSFPLSE-VKHMYHEASA-N,,,,Identification(17); Physical Data(26); Spectra(8),40.0,28.0,-44,,,,,,"Article; Minoura et al.; Journal of the American Chemical Society; vol. 81; (1959); p. 4689,4690;",https://www.reaxys.com/reaxys/secured/hopinto.do?context=C&query=CNR.CNR%3D1265127&database=RX&origin=ReaxysOutput&ln=
,C1CNC1,102384.0,https://www.reaxys.com/reaxys/secured/hopinto.do?context=S&query=IDE.XRN%3D102384&database=RX&origin=ReaxysOutput&ln=,(265 of 4000),503-29-7,azetidine,C3H6NH,C3H7N,57.0953,heterocyclic,,HONIICLYMWZJFZ-UHFFFAOYSA-N,,,,Identification(654); Physical Data(90); Spectra(46); Bioactivity(95),1699.0,1879.0,-83.15,,,,,,Article; Day; Motherwell; Ammon; Boerrigter; Della Valle; Venuti; Dzyabchenko; Dunitz; Schweizer; Van Eijck; Erk; Facelli; Bazterra; Ferraro; Hofmann; Leusen; Liang; Pantelides; Karamertzanis; Price; Lewis; Nowell; Torrisi; Scheraga; Arnautova; Schmidt; Verwer; Acta Crystallographica Section B: Structural Science; vol. 61; 5; (2005); p. 511 - 527;,https://www.reaxys.com/reaxys/secured/hopinto.do?context=C&query=CNR.CNR%3D6648653&database=RX&origin=ReaxysOutput&ln=
,CCN=C,1733148.0,https://www.reaxys.com/reaxys/secured/hopinto.do?context=S&query=IDE.XRN%3D1733148&database=RX&origin=ReaxysOutput&ln=,(266 of 4000),43729-97-1,N-ethyl methanaldimine; N-Methylenethylamin; N-ethylmethyleneimine; N-methylideneethylamine; ethylmethyleneamine; Formaldehyd-aethylimin; N-methyleneethanamine; Aethyl-methylen-amin; ethyl-methylen-amine,C3H7N,C3H7N,57.0953,acyclic,,FKOYAFITBICFAO-UHFFFAOYSA-N,,,,Identification(18); Physical Data(6); Spectra(10); Bioactivity(1),11.0,20.0,-132.5,,,,,,Patent; DUPONT DE NEMOURS INC; US2729679; (1951); A;,https://www.reaxys.com/reaxys/secured/hopinto.do?context=C&query=CNR.CNR%3D1255094&database=RX&origin=ReaxysOutput&ln=
,[H]N=CCC,1918608.0,https://www.reaxys.com/reaxys/secured/hopinto.do?context=S&query=IDE.XRN%3D1918608&database=RX&origin=ReaxysOutput&ln=,(267 of 4000),4753-69-9; 82890-68-4; 82890-69-5,propan-1-imine; propylideneamine; propyleneimine; propanimine,C3H7N,C3H7N,57.0953,acyclic,,WJKYOQDIQYJXSD-UHFFFAOYSA-N,,,,Identification(18); Physical Data(3); Spectra(2),16.0,20.0,-58,,,,,,"Article; Rosso,J.-C.; Carbonnel,L.; Comptes Rendus des Seances de l'Academie des Sciences, Serie C: Sciences Chimiques; vol. 277; (1973); p. 259 - 262;",https://www.reaxys.com/reaxys/secured/hopinto.do?context=C&query=CNR.CNR%3D132543&database=RX&origin=ReaxysOutput&ln=
,[SiH3]C#N,1732872.0,https://www.reaxys.com/reaxys/secured/hopinto.do?context=S&query=IDE.XRN%3D1732872&database=RX&origin=ReaxysOutput&ln=,(268 of 4000),1111-70-2,silylcyanide; cyanosilane; Cyan-silan; Silancarbonitril; Silylcyanid,(SiH3)CN,CH3NSi,57.127,acyclic,,LCHWKMAWSZDQRD-UHFFFAOYSA-N,,,,Identification(29); Physical Data(31); Spectra(17),17.0,84.0,32.4,,,,,,"Article; MacDiarmid; Journal of Inorganic and Nuclear Chemistry; vol. 2; (1956); p. 88,89,93;",https://www.reaxys.com/reaxys/secured/hopinto.do?context=C&query=CNR.CNR%3D1492963&database=RX&origin=ReaxysOutput&ln=