Structure: Image,SMILES,Substance Identification: Reaxys Registry Number,Links to Reaxys,Data Count,CAS Registry Number,Chemical Name,Linear Structure Formula,Molecular Formula,Molecular Weight,Type of Substance,Type and Modification,InChI Key,Composition: Comp. Name,Composition: Comp. Conc.,Composition: Comp. Attrib.,Field Availability,Number of Reactions,Number of References,Melting Point: Melting Point [C],Solvent (Melting Point),Location,Comment (Melting Point),Crystallizes With,Amount (Melting Point) [mol],References,Links to Reaxys.1
,NC(=O)CC#N,878221.0,https://www.reaxys.com/reaxys/secured/hopinto.do?context=S&query=IDE.XRN%3D878221&database=RX&origin=ReaxysOutput&ln=,(1208 of 4000),107-91-5,Cyanoacetamide; cyanoacetic acid amide,NCCH2C(O)NH2,C3H4N2O,84.0776,acyclic,,DGJMPUGMZIKDRO-UHFFFAOYSA-N,,,,Identification(689); Physical Data(45); Spectra(31); Bioactivity(157),5487.0,2975.0,116 - 117,,,,,,"Article; Wang, Fu-Cheng; Peng, Bin; Cao, Sheng-Li; Li, Hong-Yun; Yuan, Xiao-Li; Zhang, Ting-Ting; Shi, Ruifeng; Li, Zhuqing; Liao, Ji; Wang, Hailong; Li, Jing; Xu, Xingzhi; Bioorganic Chemistry; vol. 94; (2020);",https://www.reaxys.com/reaxys/secured/hopinto.do?context=C&query=CNR.CNR%3D78104443&database=RX&origin=ReaxysOutput&ln=
,CNC(=O)C#N,1700248.0,https://www.reaxys.com/reaxys/secured/hopinto.do?context=S&query=IDE.XRN%3D1700248&database=RX&origin=ReaxysOutput&ln=,(1209 of 4000),39088-41-0,N-Methylcyanformamid,C3H4N2O,C3H4N2O,84.0776,acyclic,,QBCPFJOHCNTZBD-UHFFFAOYSA-N,,,,Identification(7); Physical Data(7); Spectra(2),10.0,6.0,78,diethyl ether,,,,,"Article; Friedrich,K.; Zamkanei,M.; Chemische Berichte; vol. 112; (1979); p. 1873 - 1878;",https://www.reaxys.com/reaxys/secured/hopinto.do?context=C&query=CNR.CNR%3D44098&database=RX&origin=ReaxysOutput&ln=
,ON=CCC#N,1849992.0,https://www.reaxys.com/reaxys/secured/hopinto.do?context=S&query=IDE.XRN%3D1849992&database=RX&origin=ReaxysOutput&ln=,(1210 of 4000),25112-02-1,Cyanacetaldehyd-oxim,C3H4N2O,C3H4N2O,84.0776,acyclic,,JXWIFXXNZYQJTM-UHFFFAOYSA-N,,,,Identification(5); Physical Data(1),1.0,1.0,120 - 121,butan-1-ol,,,,,"Article; Sturm,H.-J.; Armbrust,H.; Justus Liebigs Annalen der Chemie; vol. 729; (1969); p. 139 - 145;",https://www.reaxys.com/reaxys/secured/hopinto.do?context=C&query=CNR.CNR%3D78975&database=RX&origin=ReaxysOutput&ln=
,ON1C=CN=C1,4174787.0,https://www.reaxys.com/reaxys/secured/hopinto.do?context=S&query=IDE.XRN%3D4174787&database=RX&origin=ReaxysOutput&ln=,(1212 of 4000),45376-79-2,1-hydroxyimidazole; trans-hydroxy imidazole,C3H4N2O,C3H4N2O,84.0776,heterocyclic,,OPFNZHIUHJBGEW-UHFFFAOYSA-N,,,,Identification(26); Physical Data(2); Spectra(7),36.0,28.0,93,,,,,,"Article; Laus, Gerhard; Stadlwieser, Josef; Kloetzer, Wilhelm; Synthesis; 10; (1989); p. 773 - 775;",https://www.reaxys.com/reaxys/secured/hopinto.do?context=C&query=CNR.CNR%3D5640547&database=RX&origin=ReaxysOutput&ln=
,ON1C=CC=N1,4366253.0,https://www.reaxys.com/reaxys/secured/hopinto.do?context=S&query=IDE.XRN%3D4366253&database=RX&origin=ReaxysOutput&ln=,(1213 of 4000),81945-73-5,"1H-pyrazol-1-ol; 1-hydroxypyrazole; 1-hydroxy-1,2-diazole",C3H3N2OH,C3H4N2O,84.0776,heterocyclic,,QVCIPIYWPSPRFA-UHFFFAOYSA-N,,,,Identification(38); Physical Data(10); Spectra(13),48.0,53.0,72,hexane; ethyl acetate,,,,,"Article; Begtrup, Mikael; Vedso, Per; Acta Chemica Scandinavica; vol. 50; 6; (1996); p. 549 - 555;",https://www.reaxys.com/reaxys/secured/hopinto.do?context=C&query=CNR.CNR%3D6020067&database=RX&origin=ReaxysOutput&ln=
,O=C1CNC=N1,4954911.0,https://www.reaxys.com/reaxys/secured/hopinto.do?context=S&query=IDE.XRN%3D4954911&database=RX&origin=ReaxysOutput&ln=,(1214 of 4000),1968-28-1,2-Imidazolin-4(5)-one; Imidazolinon; imidazolinone; 4-oxoimidazoline; 4-imidazolinone; diazolinone,C3H4N2O,C3H4N2O,84.0776,heterocyclic,,CAAMSDWKXXPUJR-UHFFFAOYSA-N,,,,Identification(595); Physical Data(2); Spectra(6),5.0,590.0,124 - 125,,,,,,Patent; SANOFI; US5268375; (1993); A;,https://www.reaxys.com/reaxys/secured/hopinto.do?context=C&query=CNR.CNR%3D194237&database=RX&origin=ReaxysOutput&ln=
,CN1C=NN=N1,1820.0,https://www.reaxys.com/reaxys/secured/hopinto.do?context=S&query=IDE.XRN%3D1820&database=RX&origin=ReaxysOutput&ln=,(1215 of 4000),16681-77-9,"1-methyl-1,2,3,4-tetrazole; 1-methyltetrazole; 1-methyl-1H-tetrazole; 1-methyl-5H-tetrazole",(CHN4)CH3,C2H4N4,84.0806,heterocyclic,,OMAFFHIGWTVZOH-UHFFFAOYSA-N,,,,Identification(94); Physical Data(38); Spectra(64),117.0,182.0,36 - 37,diethyl ether,,,,,"Article; Gordeev, P. B.; Smirnov, G. A.; Russian Chemical Bulletin; vol. 69; 11; (2020); p. 2153 - 2158; Izv. Akad. Nauk, Ser. Khim.; 11; (2020); p. 2153 - 2158,6;",https://www.reaxys.com/reaxys/secured/hopinto.do?context=C&query=CNR.CNR%3D81762028&database=RX&origin=ReaxysOutput&ln=
,N1NC=NN=C1,106398.0,https://www.reaxys.com/reaxys/secured/hopinto.do?context=S&query=IDE.XRN%3D106398&database=RX&origin=ReaxysOutput&ln=,(1216 of 4000),61626-05-9,"1,2-dihydro-[1,2,4,5]tetrazine; 1,2-Dihydro-[1,2,4,5]tetrazin",C2H4N4,C2H4N4,84.0806,heterocyclic,,MVSWPVFMSKKBAW-UHFFFAOYSA-N,,,,Identification(6); Physical Data(2),12.0,5.0,125 - 126,diethyl ether,,Decomp.,,,Article; Curtius; Darapsky; Mueller; Chemische Berichte; vol. 40; (1907); p. 833;,https://www.reaxys.com/reaxys/secured/hopinto.do?context=C&query=CNR.CNR%3D805254&database=RX&origin=ReaxysOutput&ln=
,CC1=NN=NN1,107152.0,https://www.reaxys.com/reaxys/secured/hopinto.do?context=S&query=IDE.XRN%3D107152&database=RX&origin=ReaxysOutput&ln=,(1217 of 4000),4076-36-2,"5-methyl-1,2,3,4-tetrazole; 5-methyltetrazole; 5-methyl-1H-tetrazole; 5-Methyltetrazol; 5-methyl-1H-1,2,3,4-tetrazole",N4HCCH3,C2H4N4,84.0806,heterocyclic,,XZGLNCKSNVGDNX-UHFFFAOYSA-N,,,,Identification(250); Physical Data(71); Spectra(44); Bioactivity(27),292.0,431.0,145 - 146,ethanol,,,,,"Article; Javaherian, Mohammad; Movaheditabar, Parviz; Nobakht, Valiollah; Journal of the Iranian Chemical Society; (2021);",https://www.reaxys.com/reaxys/secured/hopinto.do?context=C&query=CNR.CNR%3D104612463&database=RX&origin=ReaxysOutput&ln=
,NN1C=NN=C1,107563.0,https://www.reaxys.com/reaxys/secured/hopinto.do?context=S&query=IDE.XRN%3D107563&database=RX&origin=ReaxysOutput&ln=,(1218 of 4000),584-13-4,"4-amino-1,2,4-triazole; 1-amino-1,3,4-triazole",C2H4N3N,C2H4N4,84.0806,heterocyclic,,FMCUPJKTGNBGEC-UHFFFAOYSA-N,,,,Identification(308); Physical Data(38); Spectra(52); Bioactivity(46),1146.0,868.0,82 - 83,,,,,,Article; Kokovkin; Korotaev; Mironov; Lavrenova; Journal of Structural Chemistry; vol. 62; 8; (2021); p. 1191 - 1199; Zh. Strukt. Kim.; vol. 62; 8; (2021); p. 1277 - 1285;,https://www.reaxys.com/reaxys/secured/hopinto.do?context=C&query=CNR.CNR%3D100844329&database=RX&origin=ReaxysOutput&ln=
,CN1N=CN=N1,107564.0,https://www.reaxys.com/reaxys/secured/hopinto.do?context=S&query=IDE.XRN%3D107564&database=RX&origin=ReaxysOutput&ln=,(1219 of 4000),16681-78-0,2-methyltetrazole; 2-methyl-5H-tetrazole; 2-methyl-2H-tetrazol,CHN4CH3,C2H4N4,84.0806,heterocyclic,,VRESBNUEIKZECD-UHFFFAOYSA-N,,,,Identification(49); Physical Data(21); Spectra(42),21.0,84.0,12.85,,,,,,"Article; Kozyro, A. A.; Simirskii, V. V.; Krasulin, A. P.; Sevruk, V. M.; Kabo, G. Ya.; et al.; Russian Journal of Physical Chemistry; vol. 64; 3; (1990); p. 348 - 350; Zhurnal Fizicheskoi Khimii; vol. 64; (1990); p. 656 - 661;",https://www.reaxys.com/reaxys/secured/hopinto.do?context=C&query=CNR.CNR%3D5533125&database=RX&origin=ReaxysOutput&ln=
,NN1C=CN=N1,107565.0,https://www.reaxys.com/reaxys/secured/hopinto.do?context=S&query=IDE.XRN%3D107565&database=RX&origin=ReaxysOutput&ln=,(1220 of 4000),584-14-5,"1-amino-1,2,3-triazole; 3-aminotriazole; 1H-1,2,3-triazol-1-amine",C2H4N4,C2H4N4,84.0806,heterocyclic,,MPSUGQWRVNRJEE-UHFFFAOYSA-N,,,,Identification(62); Physical Data(22); Spectra(17); Bioactivity(10),68.0,98.0,39,,supporting information,,,,"Article; Szimhardt, Norbert; Wurzenberger, Maximilian H. H.; Zeisel, Lukas; Gruhne, Michael S.; Lommel, Marcus; Klapötke, Thomas M.; Stierstorfer, Jörg; Chemistry - A European Journal; vol. 25; 8; (2019); p. 1963 - 1974;",https://www.reaxys.com/reaxys/secured/hopinto.do?context=C&query=CNR.CNR%3D75218377&database=RX&origin=ReaxysOutput&ln=
,NC1=CNN=N1,107589.0,https://www.reaxys.com/reaxys/secured/hopinto.do?context=S&query=IDE.XRN%3D107589&database=RX&origin=ReaxysOutput&ln=,(1221 of 4000),30132-90-2,"aminotriazole; 3-amino-1,2,4-triazole; 4-Amino-1H-1,2,3-triazol",C2H4N4,C2H4N4,84.0806,heterocyclic,,JSIAIROWMJGMQZ-UHFFFAOYSA-N,,,,Identification(57); Physical Data(2); Spectra(1); Bioactivity(7),17.0,61.0,74 - 75,,,,,,Article; Neuman; Journal of Heterocyclic Chemistry; vol. 7; (1970); p. 1159;,https://www.reaxys.com/reaxys/secured/hopinto.do?context=C&query=CNR.CNR%3D2701668&database=RX&origin=ReaxysOutput&ln=
,NC1=NNC=N1,107687.0,https://www.reaxys.com/reaxys/secured/hopinto.do?context=S&query=IDE.XRN%3D107687&database=RX&origin=ReaxysOutput&ln=,(1222 of 4000),61-82-5,"3(5)-amino-1,2,4-triazole",N3C2H2NH2,C2H4N4,84.0806,heterocyclic,,KLSJWNVTNUYHDU-UHFFFAOYSA-N,,,,Identification(277); Physical Data(80); Spectra(56); Bioactivity(156),1531.0,1044.0,205,,,with decomposition,,,"Article; Gladkov, Eugene S.; Sirko, Svetlana M.; Musatov, Vladimir I.; Shishkina, Svetlana V.; Tkachenko, Irina G.; Komykhov, Sergey A.; Desenko, Sergey M.; Chemistry of Heterocyclic Compounds; vol. 54; 12; (2018); p. 1139 - 1144; Khim. Geterotsikl. Soedin.; vol. 54; 12; (2018); p. 1139 - 1144,6;",https://www.reaxys.com/reaxys/secured/hopinto.do?context=C&query=CNR.CNR%3D75834217&database=RX&origin=ReaxysOutput&ln=
,NC1=CN=NN1,507029.0,https://www.reaxys.com/reaxys/secured/hopinto.do?context=S&query=IDE.XRN%3D507029&database=RX&origin=ReaxysOutput&ln=,(1223 of 4000),30132-90-2,"1H-1,2,3-triazol-5-amine",C2H4N4,C2H4N4,84.0806,heterocyclic,,JSIAIROWMJGMQZ-UHFFFAOYSA-N,,,,Identification(21); Physical Data(1); Spectra(2),7.0,17.0,74 - 75,,,,,,Article; Taguchi; Tetrahedron Letters; (1973); p. 1137;,https://www.reaxys.com/reaxys/secured/hopinto.do?context=C&query=CNR.CNR%3D2795294&database=RX&origin=ReaxysOutput&ln=
,NC(=N)NC#N,605637.0,https://www.reaxys.com/reaxys/secured/hopinto.do?context=S&query=IDE.XRN%3D605637&database=RX&origin=ReaxysOutput&ln=,(1224 of 4000),127099-85-8; 780722-26-1,N-Cyanoguanidine; cyanoguanidine; Dicyandiamide,HNC(NH2)NHCN,C2H4N4,84.0806,acyclic,,QGBSISYHAICWAH-UHFFFAOYSA-N,,,,Identification(3816); Physical Data(110); Spectra(53); Bioactivity(272),3059.0,5211.0,210,,,,,,"Article; Singh, L. Jaideva; Singh, R. K. Hemakumar; Chemical Papers; vol. 68; 2; (2014); p. 223 - 232;",https://www.reaxys.com/reaxys/secured/hopinto.do?context=C&query=CNR.CNR%3D62213924&database=RX&origin=ReaxysOutput&ln=
,NC1=NC=NN1,605935.0,https://www.reaxys.com/reaxys/secured/hopinto.do?context=S&query=IDE.XRN%3D605935&database=RX&origin=ReaxysOutput&ln=,(1225 of 4000),61-82-5,"3-amino-1,2,4-triazole; 5-amino-1H-1,2,4-triazole",H2NC2N3H2,C2H4N4,84.0806,heterocyclic,,KLSJWNVTNUYHDU-UHFFFAOYSA-N,,,,Identification(116); Physical Data(5); Spectra(10); Bioactivity(24),1121.0,445.0,152 - 154,,,,,,"Article; Silveira, Flávia F.; de Souza, Juliana O.; Hoelz, Lucas V.B.; Campos, Vinícius R.; Jabor, Valquíria A.P.; Aguiar, Anna C.C.; Nonato, M. Cristina; Albuquerque, Magaly G.; Guido, Rafael V.C.; Boechat, Nubia; Pinheiro, Luiz C.S.; European Journal of Medicinal Chemistry; vol. 209; (2021);",https://www.reaxys.com/reaxys/secured/hopinto.do?context=C&query=CNR.CNR%3D81456930&database=RX&origin=ReaxysOutput&ln=
,CC1=NNN=N1,606026.0,https://www.reaxys.com/reaxys/secured/hopinto.do?context=S&query=IDE.XRN%3D606026&database=RX&origin=ReaxysOutput&ln=,(1226 of 4000),4076-36-2,"5-methyltetrazole; 5-methyl-2H-tetrazole; 5-methyl-2H-1,2,3,4-tetrazole",CH3(CHN4),C2H4N4,84.0806,heterocyclic,,XZGLNCKSNVGDNX-UHFFFAOYSA-N,,,,Identification(102); Physical Data(6); Spectra(8),139.0,150.0,146,,,,,,"Article; Demko, Zachary P.; Sharpless, K. Barry; Journal of Organic Chemistry; vol. 66; 24; (2001); p. 7945 - 7950;",https://www.reaxys.com/reaxys/secured/hopinto.do?context=C&query=CNR.CNR%3D6319375&database=RX&origin=ReaxysOutput&ln=
,NNC(=N)C#N,1098713.0,https://www.reaxys.com/reaxys/secured/hopinto.do?context=S&query=IDE.XRN%3D1098713&database=RX&origin=ReaxysOutput&ln=,(1227 of 4000),54606-55-2,1-Cyano-formimidsaeurehydrazid,C2H4N4,C2H4N4,84.0806,acyclic,,RPMBQFASZSFPQD-UHFFFAOYSA-N,,,,Identification(8); Physical Data(4),16.0,6.0,83 - 86,,,,,,Patent; PFIZER INC; US3021336; (1962); A; Chem.Abstr.; vol. 56; 15517i; (1962); Chem.Abstr.; vol. 56; 15517i; (1962);; ; Patent; PFIZER INC; US3033893; (1962); A; Chem.Abstr.; vol. 57; 14948d; (1962); Chem.Abstr.; vol. 57; 14948d; (1962);; ; Patent; PFIZER INC; US3038928; (1962); A; Chem.Abstr.; vol. 57; 12329b; (1962); Chem.Abstr.; vol. 57; 12329b; (1962);; ; Patent; PFIZER INC; US3004060; (1959); A; Chem.Abstr.; vol. 56; 4625b; (1962); Chem.Abstr.; vol. 56; 4625b; (1962);,https://www.reaxys.com/reaxys/secured/hopinto.do?context=C&query=CNR.CNR%3D2810368&database=RX&origin=ReaxysOutput&ln=
,NC(N)=NC#N,1700035.0,https://www.reaxys.com/reaxys/secured/hopinto.do?context=S&query=IDE.XRN%3D1700035&database=RX&origin=ReaxysOutput&ln=,(1228 of 4000),127099-85-8; 780722-26-1,dicyandiamide; 2-cyanoguanidine; cyanoguanidine,CNNC(NH2)2,C2H4N4,84.0806,acyclic,,QGBSISYHAICWAH-UHFFFAOYSA-N,,,,Identification(65); Physical Data(294); Spectra(56); Bioactivity(31),728.0,568.0,210 - 211,,,,,,"Article; Klasinc, Leo; Butkovic, Vjera; Novak, Igor; Mihalic, Mladen; Toso, Roberto; Sunjic, Vitomir; Gazzetta Chimica Italiana; vol. 110; 5/6; (1980); p. 287 - 292;",https://www.reaxys.com/reaxys/secured/hopinto.do?context=C&query=CNR.CNR%3D5796303&database=RX&origin=ReaxysOutput&ln=
,NN=C(N)C#N,2235317.0,https://www.reaxys.com/reaxys/secured/hopinto.do?context=S&query=IDE.XRN%3D2235317&database=RX&origin=ReaxysOutput&ln=,(1229 of 4000),54606-55-2,cyanoformamidrazone,C2H4N4,C2H4N4,84.0806,acyclic,,RPMBQFASZSFPQD-UHFFFAOYSA-N,,,,Identification(5); Physical Data(1),2.0,3.0,83 - 85,ethyl acetate; CCl4,,,,,"Article; Moser,R.E. et al.; Journal of the American Chemical Society; vol. 89; (1967); p. 5673 - 5676;",https://www.reaxys.com/reaxys/secured/hopinto.do?context=C&query=CNR.CNR%3D57763&database=RX&origin=ReaxysOutput&ln=
,NN1C=NC=N1,3536700.0,https://www.reaxys.com/reaxys/secured/hopinto.do?context=S&query=IDE.XRN%3D3536700&database=RX&origin=ReaxysOutput&ln=,(1230 of 4000),24994-60-3,"1-amino-1,2,4-triazole; 1H-1,2,4-triazol-1-amine; 1-amino-1H-1,2,4-triazole",C2N3H2NH2,C2H4N4,84.0806,heterocyclic,,NHAZGSRLKBTDBF-UHFFFAOYSA-N,,,,Identification(39); Physical Data(11); Spectra(19); Bioactivity(4),36.0,49.0,39,,supporting information,,,,"Article; Szimhardt, Norbert; Wurzenberger, Maximilian H. H.; Zeisel, Lukas; Gruhne, Michael S.; Lommel, Marcus; Klapötke, Thomas M.; Stierstorfer, Jörg; Chemistry - A European Journal; vol. 25; 8; (2019); p. 1963 - 1974;",https://www.reaxys.com/reaxys/secured/hopinto.do?context=C&query=CNR.CNR%3D75218377&database=RX&origin=ReaxysOutput&ln=
,[H]N([H])[H].N#CNC#N,3914071.0,https://www.reaxys.com/reaxys/secured/hopinto.do?context=S&query=IDE.XRN%3D3914071&database=RX&origin=ReaxysOutput&ln=,(1231 of 4000),14265-42-0,ammonium dicyanamide; dicyanamid; ammonium-(dicyano-amide); Dicyanamid; Ammonium-(dicyan-amid); Dicyanamid; Ammonium-Verbindung,C2HN3*H3N,C2HN3*H3N,84.0806,acyclic,,GCMIVBDGXCCOEP-UHFFFAOYSA-N,,,,Identification(8); Physical Data(7); Spectra(2),3.0,5.0,131,methanol; diethyl ether,,"Die Schmelze erstarrt bei weiterem Erhitzen zu Krystallen vom F: 215grad, deren Schmelze bei 250grad zu Krystallen erstarrt, die unterhalb von 400grad nicht schmelzen.",,,"Article; Frankel,M.B. et al.; Journal of Organic Chemistry; vol. 28; (1963); p. 2428 - 2431;",https://www.reaxys.com/reaxys/secured/hopinto.do?context=C&query=CNR.CNR%3D177110&database=RX&origin=ReaxysOutput&ln=
,N1C=NNC=N1,5493566.0,https://www.reaxys.com/reaxys/secured/hopinto.do?context=S&query=IDE.XRN%3D5493566&database=RX&origin=ReaxysOutput&ln=,(1232 of 4000),61626-05-9,"1,4-Dihydro-1,2,4,5-tetrazine",C2H4N4,C2H4N4,84.0806,heterocyclic,,MVSWPVFMSKKBAW-UHFFFAOYSA-N,,,,Identification(12); Physical Data(7); Spectra(3),5.0,14.0,124 - 125,ethyl acetate; petroleum ether,,,,,"Article; Neugebauer, Franz Alfred; Krieger, Claus; Fischer, Hans; Siegel, Rolf; Chemische Berichte; vol. 116; 6; (1983); p. 2261 - 2274;",https://www.reaxys.com/reaxys/secured/hopinto.do?context=C&query=CNR.CNR%3D5684727&database=RX&origin=ReaxysOutput&ln=
,[2H]C([2H])([2H])S(=O)C([2H])([2H])[2H],1237248.0,https://www.reaxys.com/reaxys/secured/hopinto.do?context=S&query=IDE.XRN%3D1237248&database=RX&origin=ReaxysOutput&ln=,(1233 of 4000),2206-27-1,dimethylsulfoxide-d6; bis-trideuteriomethyl sulfoxide; d6-dimethyl sulfoxide; DMSO-d6,CD3SOCD3,C2H6OS,84.0874,acyclic,,IAZDPXIOMUYVGZ-WFGJKAKNSA-N,,,,Identification(188); Physical Data(188); Spectra(89); Bioactivity(2),820.0,776.0,17.85,,,,,,"Article; Ibberson, Richard M.; Acta Crystallographica, Section C: Crystal Structure Communications; vol. 61; 9; (2005); p. o571-o573;",https://www.reaxys.com/reaxys/secured/hopinto.do?context=C&query=CNR.CNR%3D6534598&database=RX&origin=ReaxysOutput&ln=
,N#CSC#N,1736697.0,https://www.reaxys.com/reaxys/secured/hopinto.do?context=S&query=IDE.XRN%3D1736697&database=RX&origin=ReaxysOutput&ln=,(1234 of 4000),627-52-1,sulfur dicyanide; Schwefeldicyanid; sulphur dicyanide,S(CN)2,C2N2S,84.1014,acyclic,,RFMQOHXWHFHOJF-UHFFFAOYSA-N,,,,Identification(13); Physical Data(33); Spectra(20),69.0,75.0,59 - 61,,,,,,"Article; Lazukina, L. A.; Kukhar, V. P.; Journal of general chemistry of the USSR; vol. 53; (1983); p. 2018 - 2021; J.Gen.Chem.USSR (Engl.Transl.); vol. 53; (1983); p. 2239 - 2243; (from Gmelin)",https://www.reaxys.com/reaxys/secured/hopinto.do?context=C&query=CNR.CNR%3D7944694&database=RX&origin=ReaxysOutput&ln=
,[K+].[O-]C=O,3623272.0,https://www.reaxys.com/reaxys/secured/hopinto.do?context=S&query=IDE.XRN%3D3623272&database=RX&origin=ReaxysOutput&ln=,(1235 of 4000),590-29-4,potassium formate; potassium methylate,K(1+)*HCO2(1-)=K(HCO2),CHO2*K,84.116,acyclic,,WFIZEGIEIOHZCP-UHFFFAOYSA-M,,,,Identification(659); Physical Data(113); Spectra(39); Bioactivity(60),403.0,1126.0,167.7,,,,,,"Article; Vitali, G.; Berchiesi, G.; Barocci, S.; Thermochimica Acta; vol. 189; (1991); p. 261 - 270; (from Gmelin)",https://www.reaxys.com/reaxys/secured/hopinto.do?context=C&query=CNR.CNR%3D7769947&database=RX&origin=ReaxysOutput&ln=
,[K+].[H]C([O-])=O,16032759.0,https://www.reaxys.com/reaxys/secured/hopinto.do?context=S&query=IDE.XRN%3D16032759&database=RX&origin=ReaxysOutput&ln=,(1236 of 4000),590-29-4,"potassium formate; potassium formate KHCOO, high temperature, monoclinic, I",K(1+)*HCOO(1-)=KHCOO,CHO2*K,84.116,,"high temperature, monoclinic, I",WFIZEGIEIOHZCP-UHFFFAOYSA-M,,,,Identification(5); Physical Data(4); Spectra(1),,1.0,168,,,,,,"Article; Heyns, A. M.; Range, K.-J.; Mueller, K.; Canadian Journal of Chemistry; vol. 69; 11; (1991); p. 1774 - 1780; (from Gmelin)",https://www.reaxys.com/reaxys/secured/hopinto.do?context=C&query=CNR.CNR%3D5649536&database=RX&origin=ReaxysOutput&ln=
,C\C=C\C(C)=O,506057.0,https://www.reaxys.com/reaxys/secured/hopinto.do?context=S&query=IDE.XRN%3D506057&database=RX&origin=ReaxysOutput&ln=,(1237 of 4000),3102-33-8,3-Penten-2-one; trans-3-penten-2-one,CH3C(O)CHCHCH3,C5H8O,84.1179,acyclic,,LABTWGUMFABVFG-ONEGZZNKSA-N,,,,Identification(582); Physical Data(61); Spectra(40); Bioactivity(57),1124.0,1058.0,124,,,,,,"Article; Mecke,R.; Noack,K.; Chemische Berichte; vol. 93; (1960); p. 210 - 225;",https://www.reaxys.com/reaxys/secured/hopinto.do?context=C&query=CNR.CNR%3D35846&database=RX&origin=ReaxysOutput&ln=