Structure: Image,SMILES,Substance Identification: Reaxys Registry Number,Links to Reaxys,Data Count,CAS Registry Number,Chemical Name,Linear Structure Formula,Molecular Formula,Molecular Weight,Type of Substance,Type and Modification,InChI Key,Composition: Comp. Name,Composition: Comp. Conc.,Composition: Comp. Attrib.,Field Availability,Number of Reactions,Number of References,Melting Point: Melting Point [C],Solvent (Melting Point),Location,Comment (Melting Point),Crystallizes With,Amount (Melting Point) [mol],References,Links to Reaxys.1
,[2H]B([2H])[2H].CN(C)C,3673071.0,https://www.reaxys.com/reaxys/secured/hopinto.do?context=S&query=IDE.XRN%3D3673071&database=RX&origin=ReaxysOutput&ln=,(797 of 4000),,Trimethylaminotrideuteroboran; trimethyl-amine; compound with trideuterioborane; Trimethyl-amin; Verbindung mit Trideuterioboran,(CH3)3N*BD3,BH3*C3H9N,75.9222,acyclic; Isotope or isotope containing compound,,WVMHLYQJPRXKLC-SVLQTQOOSA-N,,,,Identification(5); Physical Data(3); Spectra(4),3.0,4.0,91,,,,,,"Article; Ryschkewitsch; Journal of the American Chemical Society; vol. 89; (1967); p. 3145,3147;",https://www.reaxys.com/reaxys/secured/hopinto.do?context=C&query=CNR.CNR%3D3728638&database=RX&origin=ReaxysOutput&ln=
,SB=S,16467463.0,https://www.reaxys.com/reaxys/secured/hopinto.do?context=S&query=IDE.XRN%3D16467463&database=RX&origin=ReaxysOutput&ln=,(799 of 4000),13775-45-6,thiometaboric acid,HBS2,BHS2,75.9509,,,BSOSUJTZJBOWOH-UHFFFAOYSA-N,,,,Identification(5); Physical Data(5),8.0,13.0,120 - 140,,,,,,"Article; Stock; Poppenberg; Chemische Berichte; vol. 34; (1901); p. 401;; ; Article; Gmelin Handbuch der Anorganischen Chemie; vol. B: MVol.; 12.4, page 133 - 134; (from Gmelin)",https://www.reaxys.com/reaxys/secured/hopinto.do?context=C&query=CNR.CNR%3D7264617&database=RX&origin=ReaxysOutput&ln=
,CSC.[H]B([H])[H],3663489.0,https://www.reaxys.com/reaxys/secured/hopinto.do?context=S&query=IDE.XRN%3D3663489&database=RX&origin=ReaxysOutput&ln=,(800 of 4000),13292-87-0,dimethyl sulfide borane; borane dimethylsulfide; borane dimethyl sulfide complex; borane methyl sulfide; BH3SMe2; borane dimethylsulphide; borane dimethyl sulphide complex; BH3Me2S,(CH3)2S*(BH3),BH3*C2H6S,75.9705,acyclic,,RMHDLBZYPISZOI-UHFFFAOYSA-N,,,,Identification(73); Physical Data(27); Spectra(18),684.0,463.0,-27,,,,,,Article; Heal; Journal of Inorganic and Nuclear Chemistry; vol. 12; (1960); p. 255; Chem.Abstr.; vol. 54; 12854; (1960);,https://www.reaxys.com/reaxys/secured/hopinto.do?context=C&query=CNR.CNR%3D3798644&database=RX&origin=ReaxysOutput&ln=
,[2H]O[2H].[2H]OO[2H],16968747.0,https://www.reaxys.com/reaxys/secured/hopinto.do?context=S&query=IDE.XRN%3D16968747&database=RX&origin=ReaxysOutput&ln=,(801 of 4000),,,D2O2*2D2O,.2(2)H2O*H2O2,75.9976,Isotope or isotope containing compound,,QOSATHPSBFQAML-JBISRTOLSA-N,,,,Identification(5); Physical Data(1),,2.0,-51.5,,,,,,"Article; Giguere, P. A.; Secco, E. A.; Canadian Journal of Chemistry; vol. 32; (1954); p. 550 - 556;; ; Article; Gmelin Handbuch der Anorganischen Chemie; vol. O: MVol.7; 145, page 2522 - 2524; (from Gmelin)",https://www.reaxys.com/reaxys/secured/hopinto.do?context=C&query=CNR.CNR%3D7617963&database=RX&origin=ReaxysOutput&ln=
,O=NN(=O)=O,16008075.0,https://www.reaxys.com/reaxys/secured/hopinto.do?context=S&query=IDE.XRN%3D16008075&database=RX&origin=ReaxysOutput&ln=,(802 of 4000),10544-73-7,dinitrogen trioxide,O2NNO,N2O3,76.0116,Isotope or isotope containing compound; Coordination compound,,LZDSILRDTDCIQT-UHFFFAOYSA-N,,,,Identification(6); Physical Data(74); Spectra(53),316.0,609.0,-102,,,,,,"Article; Mueller, E.; Zeitschrift fur anorganische Chemie; vol. 76; (1912); p. 329;; ; Article; Gmelin Handbuch der Anorganischen Chemie; vol. N: MVol.3; 3.2, page 745 - 748; (from Gmelin)",https://www.reaxys.com/reaxys/secured/hopinto.do?context=C&query=CNR.CNR%3D7342091&database=RX&origin=ReaxysOutput&ln=
,FC(F)C#C,1814996.0,https://www.reaxys.com/reaxys/secured/hopinto.do?context=S&query=IDE.XRN%3D1814996&database=RX&origin=ReaxysOutput&ln=,(805 of 4000),18371-25-0,"3,3-difluoropropyne; 1,1-Difluor-propin-(2); Difluormethylacetylen; 1,1-Difluorpropin",C3H2F2,C3H2F2,76.0457,acyclic,,ZCSBOJDDMSHDGG-UHFFFAOYSA-N,,,,Identification(5); Physical Data(3); Spectra(2),2.0,4.0,-112,,,,,,Article; Bel'ferman et al.; Journal of general chemistry of the USSR; vol. 37; (1967); p. 1870; Zhurnal Obshchei Khimii; vol. 37; (1967); p. 1970;,https://www.reaxys.com/reaxys/secured/hopinto.do?context=C&query=CNR.CNR%3D3786911&database=RX&origin=ReaxysOutput&ln=
,FC=C=CF,2231969.0,https://www.reaxys.com/reaxys/secured/hopinto.do?context=S&query=IDE.XRN%3D2231969&database=RX&origin=ReaxysOutput&ln=,(806 of 4000),61886-93-9; 51584-23-7,"1,3-difluoroallene; 1,2-Difluorallen; 1,3-Difluorallen; 1,3-difluoro-propadiene",C3H2F2,C3H2F2,76.0457,acyclic,,RWMKRSAAQCJLQC-UHFFFAOYSA-N,,,,Identification(10); Physical Data(6); Spectra(6),2.0,9.0,-107,,supporting information,,,,"Article; Kuehnel, Moritz F.; Schloeder, Tobias; Riedel, Sebastian; Nieto-Ortega, Belen; Ramirez, Francisco J.; Lopez-Navarrete, Juan T.; Casado, Juan; Lentz, Dieter; Angewandte Chemie - International Edition; vol. 51; 9; (2012); p. 2218 - 2220;",https://www.reaxys.com/reaxys/secured/hopinto.do?context=C&query=CNR.CNR%3D20121507&database=RX&origin=ReaxysOutput&ln=
,[2H]C([2H])([2H])N(C#N)C([2H])([2H])[2H],2355375.0,https://www.reaxys.com/reaxys/secured/hopinto.do?context=S&query=IDE.XRN%3D2355375&database=RX&origin=ReaxysOutput&ln=,(807 of 4000),72142-88-2,N-Cyano-di-(trideuteromethyl)-amin; bis-trideuteriomethyl-cyanamide; di(methyl-d3)cyanamide,C3D6N2,C3H6N2,76.0464,acyclic,,OAGOUCJGXNLJNL-WFGJKAKNSA-N,,,,Identification(5); Physical Data(1); Spectra(1),2.0,1.0,-41,,,,,,Article; Bak; Svanholt; Chemical Physics Letters; vol. 66; (1979); p. 387;,https://www.reaxys.com/reaxys/secured/hopinto.do?context=C&query=CNR.CNR%3D4364171&database=RX&origin=ReaxysOutput&ln=
,CC(=O)OO,1098464.0,https://www.reaxys.com/reaxys/secured/hopinto.do?context=S&query=IDE.XRN%3D1098464&database=RX&origin=ReaxysOutput&ln=,(808 of 4000),79-21-0,peracetic acid; Peroxyacetic acid,CH3C(O)OOH,C2H4O3,76.052,acyclic,,KFSLWBXXFJQRDL-UHFFFAOYSA-N,,,,Identification(3851); Physical Data(74); Spectra(20); Bioactivity(314),1158.0,4828.0,56,,,,,,Patent; FRANCIS; Y CLEAN ENTERPRISES; US2006/233886; (2006); A1;,https://www.reaxys.com/reaxys/secured/hopinto.do?context=C&query=CNR.CNR%3D413240&database=RX&origin=ReaxysOutput&ln=
,OCC(O)=O,1209322.0,https://www.reaxys.com/reaxys/secured/hopinto.do?context=S&query=IDE.XRN%3D1209322&database=RX&origin=ReaxysOutput&ln=,(809 of 4000),79-14-1,Glycolic Acid,OHCH2CO2H,C2H4O3,76.052,acyclic,,AEMRFAOFKBGASW-UHFFFAOYSA-N,,,,Identification(5500); Physical Data(311); Spectra(111); Bioactivity(500),2750.0,8234.0,75,,Paragraph 0151,,,,Patent; TONIX PHARMACEUTICALS HOLDING CORP.; WO2020/194058; (2020); A1;,https://www.reaxys.com/reaxys/secured/hopinto.do?context=C&query=CNR.CNR%3D81155833&database=RX&origin=ReaxysOutput&ln=
,COC(O)=O,1738995.0,https://www.reaxys.com/reaxys/secured/hopinto.do?context=S&query=IDE.XRN%3D1738995&database=RX&origin=ReaxysOutput&ln=,(810 of 4000),7456-87-3,carbonic acid monomethyl ester,COCH3(O)OH,C2H4O3,76.052,acyclic,,CXHHBNMLPJOKQD-UHFFFAOYSA-N,,,,Identification(159); Physical Data(21); Spectra(11),44.0,183.0,-36,,,,,,"Article; Gattow; Behrendt; Angewandte Chemie; vol. 84; (1972); p. 549;; ; Article; Behrendt; Gattow; Zeitschrift fur Anorganische und Allgemeine Chemie; vol. 398; (1973); p. 198,200,202;",https://www.reaxys.com/reaxys/secured/hopinto.do?context=C&query=CNR.CNR%3D4156326&database=RX&origin=ReaxysOutput&ln=
,CNN(=O)=O,1699873.0,https://www.reaxys.com/reaxys/secured/hopinto.do?context=S&query=IDE.XRN%3D1699873&database=RX&origin=ReaxysOutput&ln=,(811 of 4000),598-57-2,methylnitroamine; N-nitromethanamine; N-methylnitramine; methylnitramine,CH3NHNO2,CH4N2O2,76.055,acyclic,,ARCZSDSOONGBRX-UHFFFAOYSA-N,,,,Identification(54); Physical Data(58); Spectra(28); Bioactivity(9),169.0,165.0,36,diethyl ether,supporting information,,,,"Article; Zharkov, Mikhail N.; Kuchurov, Ilya V.; Fomenkov, Igor V.; Tartakovsky, Vladimir A.; Fedyanin, Ivan V.; Zlotin, Sergei G.; Synthesis; vol. 49; 5; (2017); p. 1103 - 1108;",https://www.reaxys.com/reaxys/secured/hopinto.do?context=C&query=CNR.CNR%3D70670455&database=RX&origin=ReaxysOutput&ln=
,NNC(O)=O,1699883.0,https://www.reaxys.com/reaxys/secured/hopinto.do?context=S&query=IDE.XRN%3D1699883&database=RX&origin=ReaxysOutput&ln=,(812 of 4000),471-31-8,carbazic acid; Hydrazincarbonsaeure; hydrazinium carboxylate; hydrazine carboxylic acid; formic hydrazine,H2NNHCO2H,CH4N2O2,76.055,acyclic,,OWIUPIRUAQMTTK-UHFFFAOYSA-N,,,,Identification(61); Physical Data(15); Spectra(11),62.0,109.0,100,,Paragraph 0128,,,,Patent; SOGANG UNIVERSITY; US2015/94490; (2015); A1;,https://www.reaxys.com/reaxys/secured/hopinto.do?context=C&query=CNR.CNR%3D65919339&database=RX&origin=ReaxysOutput&ln=
,NC(=O)NO,1741548.0,https://www.reaxys.com/reaxys/secured/hopinto.do?context=S&query=IDE.XRN%3D1741548&database=RX&origin=ReaxysOutput&ln=,(813 of 4000),127-07-1,N-hydroxyurea,NH2C(O)NHOH,CH4N2O2,76.055,acyclic,,VSNHCAURESNICA-UHFFFAOYSA-N,,,,Identification(8744); Physical Data(35); Spectra(26); Bioactivity(1046),228.0,8792.0,138.5 - 139,,Paragraph 0039; 0041,,,,Patent; QILU PHARMACEUTICAL GROUP CO LTD; CN105330570; (2016); A;,https://www.reaxys.com/reaxys/secured/hopinto.do?context=C&query=CNR.CNR%3D70394413&database=RX&origin=ReaxysOutput&ln=
,NOC(N)=O,1741549.0,https://www.reaxys.com/reaxys/secured/hopinto.do?context=S&query=IDE.XRN%3D1741549&database=RX&origin=ReaxysOutput&ln=,(814 of 4000),683-62-5,amino carbamate; O-carbamoyl-hydroxylamine; Isohydroxy-harnstoff,CH4N2O2,CH4N2O2,76.055,acyclic,,IVHKZGYFKJRXBD-UHFFFAOYSA-N,,,,Identification(86); Physical Data(9); Spectra(3),12.0,96.0,72 - 74,ethanol; diethyl ether,,,,,Article; Larsen; Kjoller; Acta Chemica Scandinavica (1947); vol. 22; (1968); p. 843;,https://www.reaxys.com/reaxys/secured/hopinto.do?context=C&query=CNR.CNR%3D5226239&database=RX&origin=ReaxysOutput&ln=
,N#CC#CC#N,1735267.0,https://www.reaxys.com/reaxys/secured/hopinto.do?context=S&query=IDE.XRN%3D1735267&database=RX&origin=ReaxysOutput&ln=,(815 of 4000),1071-98-3,2-butynedinitrile; dicyanoacetylene; Acetylenedicarbonitrile,NC4N,C4N2,76.0574,acyclic,,ZEHZNAXXOOYTJM-UHFFFAOYSA-N,,,,Identification(101); Physical Data(92); Spectra(45),298.0,316.0,20.5,,,,,,"Article; Mommaerts; Bulletin des Societes Chimiques Belges; vol. 52; (1943); p. 64,70,76; Bulletin de la Classe des Sciences, Academie Royale de Belgique; vol. &lt;5&gt;27; (1941); p. 581,588,595;",https://www.reaxys.com/reaxys/secured/hopinto.do?context=C&query=CNR.CNR%3D1170248&database=RX&origin=ReaxysOutput&ln=
,[H][C@]([2H])(N)C(O)=O,2323317.0,https://www.reaxys.com/reaxys/secured/hopinto.do?context=S&query=IDE.XRN%3D2323317&database=RX&origin=ReaxysOutput&ln=,(816 of 4000),62061-53-4,(2R)-<2-(2)H1>glycine; (R)-<2-(2)H>-glycine,C2H4DNO2,C2H5NO2,76.0593,acyclic,,DHMQDGOQFOQNFH-KLFDDBSISA-N,,,,Identification(17); Physical Data(11); Spectra(8),15.0,14.0,229 - 231,,supporting information,,,,"Article; Kawasaki, Tsuneomi; Shimizu, Masako; Nishiyama, Daisuke; Ito, Masateru; Ozawa, Hitomi; Soai, Kenso; Chemical Communications; 29; (2009); p. 4396 - 4398;",https://www.reaxys.com/reaxys/secured/hopinto.do?context=C&query=CNR.CNR%3D8810541&database=RX&origin=ReaxysOutput&ln=
,[2H][C@H](N)C(O)=O,4242485.0,https://www.reaxys.com/reaxys/secured/hopinto.do?context=S&query=IDE.XRN%3D4242485&database=RX&origin=ReaxysOutput&ln=,(817 of 4000),62061-52-3,(S)-<2-2H1>glycine; (S)-<2-(2)H>-glycine; (2S)-<2-2H1>glycine,C2H4DNO2,C2H5NO2,76.0593,acyclic,,DHMQDGOQFOQNFH-YUYPMLDFSA-N,,,,Identification(16); Physical Data(13); Spectra(9),15.0,17.0,229 - 231,,supporting information,,,,"Article; Kawasaki, Tsuneomi; Shimizu, Masako; Nishiyama, Daisuke; Ito, Masateru; Ozawa, Hitomi; Soai, Kenso; Chemical Communications; 29; (2009); p. 4396 - 4398;",https://www.reaxys.com/reaxys/secured/hopinto.do?context=C&query=CNR.CNR%3D8810541&database=RX&origin=ReaxysOutput&ln=
,FCC1CO1,102460.0,https://www.reaxys.com/reaxys/secured/hopinto.do?context=S&query=IDE.XRN%3D102460&database=RX&origin=ReaxysOutput&ln=,(818 of 4000),503-09-3,epifluorohydrine; epifluorohydrin; 2-(fluoromethyl)oxirane,CH2OCHCH2F,C3H5FO,76.0705,heterocyclic,,OIFAHDAXIUURLN-UHFFFAOYSA-N,,,,Identification(50); Physical Data(31); Spectra(21); Bioactivity(7),97.0,128.0,85,,,,,,"Article; Kovylyaeva, G. I.; Vereshchagin, A. N.; Bulletin of the Academy of Sciences of the USSR Division of Chemical Science; vol. 33; (1984); p. 1092 - 1095; Izvestiya Akademii Nauk SSSR, Seriya Khimicheskaya; 5; (1984); p. 1189 - 1191;",https://www.reaxys.com/reaxys/secured/hopinto.do?context=C&query=CNR.CNR%3D5797562&database=RX&origin=ReaxysOutput&ln=
,NN[14C](N)=N,1855105.0,https://www.reaxys.com/reaxys/secured/hopinto.do?context=S&query=IDE.XRN%3D1855105&database=RX&origin=ReaxysOutput&ln=,(819 of 4000),88394-59-6,<14C> aminoguanidine; <14C>Aminoguanidin-hydrogencarbonat,(14)CH6N4,CH6N4,76.0744,acyclic,,HAMNKKUPIHEESI-NJFSPNSNSA-N,,,,Identification(5); Physical Data(1),3.0,2.0,175,,,,,,Article; OLIVERIO; DENHAM; Journal of Pharmaceutical Sciences; vol. 52; (1963); p. 202 - 203;,https://www.reaxys.com/reaxys/secured/hopinto.do?context=C&query=CNR.CNR%3D3912883&database=RX&origin=ReaxysOutput&ln=
,[2H]C1OC([2H])C([2H])C1[2H],1451.0,https://www.reaxys.com/reaxys/secured/hopinto.do?context=S&query=IDE.XRN%3D1451&database=RX&origin=ReaxysOutput&ln=,(820 of 4000),120089-77-2,"tetrahydrofuran-2,3,4,5-d4",C4H4D4O,C4H8O,76.0752,heterocyclic,,WYURNTSHIVDZCO-RHQRLBAQSA-N,,,,Identification(6); Physical Data(7); Spectra(1),4.0,6.0,-107.7,,,,,,"Article; Bissell; Finger; Journal of Organic Chemistry; vol. 24; (1959); p. 1256,1258;",https://www.reaxys.com/reaxys/secured/hopinto.do?context=C&query=CNR.CNR%3D1179276&database=RX&origin=ReaxysOutput&ln=
,[2H]C1([2H])COCC1([2H])[2H],105198.0,https://www.reaxys.com/reaxys/secured/hopinto.do?context=S&query=IDE.XRN%3D105198&database=RX&origin=ReaxysOutput&ln=,(821 of 4000),2717-68-2,"Tetrahydrofuran-3,3,4,4-d(4); 3,3,4,4-Tetradeuterio-tetrahydro-furan; 3,3,4,4-tetradeuterotetrahydrofuran",C4H4(2)H4O,C4H8O,76.0752,heterocyclic,,WYURNTSHIVDZCO-LNLMKGTHSA-N,,,,Identification(5); Physical Data(5); Spectra(1),2.0,3.0,-105.8,,,,,,"Article; Bissell; Finger; Journal of Organic Chemistry; vol. 24; (1959); p. 1256,1258;",https://www.reaxys.com/reaxys/secured/hopinto.do?context=C&query=CNR.CNR%3D1179276&database=RX&origin=ReaxysOutput&ln=
,[2H]C1([2H])CCC([2H])([2H])O1,105236.0,https://www.reaxys.com/reaxys/secured/hopinto.do?context=S&query=IDE.XRN%3D105236&database=RX&origin=ReaxysOutput&ln=,(822 of 4000),20665-63-8,"Tetrahydrofuran-2,2,5,5-d4",C4H4D4O,C4H8O,76.0752,heterocyclic,,WYURNTSHIVDZCO-KHORGVISSA-N,,,,Identification(7); Physical Data(6); Spectra(4),4.0,7.0,-109.1,,,,,,"Article; Bissell; Finger; Journal of Organic Chemistry; vol. 24; (1959); p. 1256,1258;",https://www.reaxys.com/reaxys/secured/hopinto.do?context=C&query=CNR.CNR%3D1179276&database=RX&origin=ReaxysOutput&ln=
,CP(C)C,969138.0,https://www.reaxys.com/reaxys/secured/hopinto.do?context=S&query=IDE.XRN%3D969138&database=RX&origin=ReaxysOutput&ln=,(823 of 4000),594-09-2,trimethylphosphane; trimethylphosphin; PMe3; triphenylphosphine,(H3C)3P,C3H9P,76.0782,acyclic,,YWWDBCBWQNCYNR-UHFFFAOYSA-N,,,,Identification(654); Physical Data(175); Spectra(103),8144.0,5246.0,-85,,,,,,"Article; Seel; Rudolph; Zeitschrift fur Anorganische und Allgemeine Chemie; vol. 363; (1968); p. 233,235;; ; Article; Nishikida; Williams; Journal of the American Chemical Society; vol. 97; (1975); p. 5462;",https://www.reaxys.com/reaxys/secured/hopinto.do?context=C&query=CNR.CNR%3D4207785&database=RX&origin=ReaxysOutput&ln=
,CCPC,1918060.0,https://www.reaxys.com/reaxys/secured/hopinto.do?context=S&query=IDE.XRN%3D1918060&database=RX&origin=ReaxysOutput&ln=,(824 of 4000),5849-95-6,Methyl-ethyl-phosphin,C3H9P,C3H9P,76.0782,acyclic,,BXDCELKJGGVUHD-UHFFFAOYSA-N,,,,Identification(12); Physical Data(5); Spectra(3),4.0,12.0,-160,,,,,,"Patent; PFIZER INC; US3075017; (1959); A; Chem.Abstr.; vol. 58; 13995; (1963); Chem.Abstr.; vol. 58; 13995; (1963);; ; Article; Maier; Chemische Berichte; vol. 94; (1961); p. 3051,3054;",https://www.reaxys.com/reaxys/secured/hopinto.do?context=C&query=CNR.CNR%3D3963364&database=RX&origin=ReaxysOutput&ln=
,OCCCO,969155.0,https://www.reaxys.com/reaxys/secured/hopinto.do?context=S&query=IDE.XRN%3D969155&database=RX&origin=ReaxysOutput&ln=,(825 of 4000),504-63-2,"1,3-propanediol; trimethyleneglycol; 1,3-propanediole; Propane-1,3-diol",CH2(CH2OH)2,C3H8O2,76.0953,acyclic,,YPFDHNVEDLHUCE-UHFFFAOYSA-N,,,,Identification(4730); Physical Data(629); Spectra(91); Bioactivity(485),4055.0,8633.0,-20,,,,,,"Article; Solonina; Rodnikova; Kiselev; Khoroshilov; Russian Journal of Physical Chemistry; vol. 89; 5; (2015); p. 910 - 913; Zh. Fiz. Khim.; vol. 89; 5; (2015); p. 882 - 885,4;",https://www.reaxys.com/reaxys/secured/hopinto.do?context=C&query=CNR.CNR%3D66091096&database=RX&origin=ReaxysOutput&ln=
,CC(O)CO,1340498.0,https://www.reaxys.com/reaxys/secured/hopinto.do?context=S&query=IDE.XRN%3D1340498&database=RX&origin=ReaxysOutput&ln=,(826 of 4000),57-55-6,"1,2-Propanediol; propylene glycol",C3H6(OH)2,C3H8O2,76.0953,acyclic,,DNIAPMSPPWPWGF-UHFFFAOYSA-N,,,,Identification(2769); Physical Data(968); Spectra(148); Bioactivity(566),2255.0,6356.0,,,,,,,Article; Lopatin et al.; Pharmaceutical Chemistry Journal; vol. 6; 11; (1972); p. 724; Khimiko-Farmatsevticheskii Zhurnal; vol. 6; 11; (1972); p. 36;,https://www.reaxys.com/reaxys/secured/hopinto.do?context=C&query=CNR.CNR%3D2711189&database=RX&origin=ReaxysOutput&ln=
,COCOC,1697025.0,https://www.reaxys.com/reaxys/secured/hopinto.do?context=S&query=IDE.XRN%3D1697025&database=RX&origin=ReaxysOutput&ln=,(827 of 4000),109-87-5,Dimethoxymethane; Formaldehyde dimethyl acetal,H2C(OCH3)2,C3H8O2,76.0953,acyclic,,NKDDWNXOKDWJAK-UHFFFAOYSA-N,,,,Identification(1818); Physical Data(361); Spectra(138); Bioactivity(187),2212.0,3450.0,-105.14,,,,,,"Article; McEachern; Kilpatrick; Journal of Chemical Physics; vol. 41; (1964); p. 3127,3130;",https://www.reaxys.com/reaxys/secured/hopinto.do?context=C&query=CNR.CNR%3D3841217&database=RX&origin=ReaxysOutput&ln=
,COCCO,1731074.0,https://www.reaxys.com/reaxys/secured/hopinto.do?context=S&query=IDE.XRN%3D1731074&database=RX&origin=ReaxysOutput&ln=,(828 of 4000),109-86-4,2-methoxy-ethanol; ethylene glycol monomethyl ether; 2-methoxyethan-1-ol,OHC2H4OCH3,C3H8O2,76.0953,acyclic,,XNWFRZJHXBZDAG-UHFFFAOYSA-N,,,,Identification(691); Physical Data(1114); Spectra(133); Bioactivity(284),3358.0,3839.0,124.42,,,,,,"Article; Pla-Franco, Jordi; Lladosa, Estela; Monton, Juan B.; Loras, Sonia; Journal of Chemical and Engineering Data; vol. 58; 12; (2013); p. 3504 - 3512;",https://www.reaxys.com/reaxys/secured/hopinto.do?context=C&query=CNR.CNR%3D62242466&database=RX&origin=ReaxysOutput&ln=
,CCCOO,1731129.0,https://www.reaxys.com/reaxys/secured/hopinto.do?context=S&query=IDE.XRN%3D1731129&database=RX&origin=ReaxysOutput&ln=,(829 of 4000),6068-96-8,n-propyl hydroperoxide; hydroxy propyl ether; propyl hydroperoxide; Propy-hydrogenperoxid; Propylhydroperoxid,CH3(CH2)2OOH,C3H8O2,76.0953,acyclic,,TURGQPDWYFJEDY-UHFFFAOYSA-N,,,,Identification(25); Physical Data(17); Spectra(3),28.0,53.0,-90,,,,,,"Article; Harris; Proceedings of the Royal Society of London, Series A: Mathematical, Physical and Engineering Sciences; vol. 173; (1939); p. 134,138;",https://www.reaxys.com/reaxys/secured/hopinto.do?context=C&query=CNR.CNR%3D1352332&database=RX&origin=ReaxysOutput&ln=