Structure: Image,SMILES,Substance Identification: Reaxys Registry Number,Links to Reaxys,Data Count,CAS Registry Number,Chemical Name,Linear Structure Formula,Molecular Formula,Molecular Weight,Type of Substance,Type and Modification,InChI Key,Composition: Comp. Name,Composition: Comp. Conc.,Composition: Comp. Attrib.,Field Availability,Number of Reactions,Number of References,Melting Point: Melting Point [C],Solvent (Melting Point),Location,Comment (Melting Point),Crystallizes With,Amount (Melting Point) [mol],References,Links to Reaxys.1
,CCN=C=O,773743.0,https://www.reaxys.com/reaxys/secured/hopinto.do?context=S&query=IDE.XRN%3D773743&database=RX&origin=ReaxysOutput&ln=,(591 of 4000),109-90-0,ethyl isocyanate,CH3CH2NCO,C3H5NO,71.0788,acyclic,,WUDNUHPRLBTKOJ-UHFFFAOYSA-N,,,,Identification(292); Physical Data(52); Spectra(52); Bioactivity(146),4004.0,2874.0,95,,,,,,"Article; Martin et al.; Justus Liebigs Annalen der Chemie; vol. 727; (1969); p. 10,15, 20, 21;",https://www.reaxys.com/reaxys/secured/hopinto.do?context=C&query=CNR.CNR%3D2611255&database=RX&origin=ReaxysOutput&ln=
,C1CC=NO1,906803.0,https://www.reaxys.com/reaxys/secured/hopinto.do?context=S&query=IDE.XRN%3D906803&database=RX&origin=ReaxysOutput&ln=,(592 of 4000),504-73-4,2-Isoxazolin,C3H5NO,C3H5NO,71.0788,heterocyclic,,WEQPBCSPRXFQQS-UHFFFAOYSA-N,,,,Identification(452); Physical Data(6); Spectra(3),10.0,446.0,198 - 200,,,,,,Patent; BRISTOL-MYERS SQUIBB CO; US6306886; (2001); B1;,https://www.reaxys.com/reaxys/secured/hopinto.do?context=C&query=CNR.CNR%3D129703&database=RX&origin=ReaxysOutput&ln=
,NOCC#C,969305.0,https://www.reaxys.com/reaxys/secured/hopinto.do?context=S&query=IDE.XRN%3D969305&database=RX&origin=ReaxysOutput&ln=,(593 of 4000),4616-54-0,O-(prop-2-yn-1-yl)hydroxylamine,C3H5NO,C3H5NO,71.0788,acyclic,,CFLXYLWBJMISBG-UHFFFAOYSA-N,,,,Identification(13); Physical Data(3); Spectra(1); Bioactivity(1),16.0,19.0,160 - 161,butan-1-ol; diethyl ether,,,,,Patent; MERCK KGAA; US3221019; (1964); A; Chem.Abstr.; vol. 64; 5053; (1966); Chem.Abstr.; vol. 64; 5053; (1966);,https://www.reaxys.com/reaxys/secured/hopinto.do?context=C&query=CNR.CNR%3D3136482&database=RX&origin=ReaxysOutput&ln=
,C=CNC=O,1847279.0,https://www.reaxys.com/reaxys/secured/hopinto.do?context=S&query=IDE.XRN%3D1847279&database=RX&origin=ReaxysOutput&ln=,(594 of 4000),13162-05-5,n-vinylformamide; vinylformamide,C3H5ON,C3H5NO,71.0788,acyclic,,ZQXSMRAEXCEDJD-UHFFFAOYSA-N,,,,Identification(297); Physical Data(16); Spectra(8); Bioactivity(23),271.0,377.0,-16,,,,,,"Review; Kröner, Michael; Dupuis, Jacques; Winter, Manfred; Advanced Synthesis and Catalysis; vol. 342; 2; (2000); p. 115 - 131;",https://www.reaxys.com/reaxys/secured/hopinto.do?context=C&query=CNR.CNR%3D6221748&database=RX&origin=ReaxysOutput&ln=
,NC=CC=O,1847323.0,https://www.reaxys.com/reaxys/secured/hopinto.do?context=S&query=IDE.XRN%3D1847323&database=RX&origin=ReaxysOutput&ln=,(595 of 4000),25186-34-9,3-aminoacrolein,C3H5NO,C3H5NO,71.0788,acyclic,,UCRYVFBKCBUURB-UHFFFAOYSA-N,,,,Identification(18); Physical Data(7); Spectra(6),19.0,28.0,104 - 105,CHCl3; petroleum ether,,,,,"Article; Thummel,R.P.; Kohli,D.K.; Journal of Organic Chemistry; vol. 42; (1977); p. 2742 - 2747;",https://www.reaxys.com/reaxys/secured/hopinto.do?context=C&query=CNR.CNR%3D192723&database=RX&origin=ReaxysOutput&ln=
,O=NC1CC1,1902009.0,https://www.reaxys.com/reaxys/secured/hopinto.do?context=S&query=IDE.XRN%3D1902009&database=RX&origin=ReaxysOutput&ln=,(596 of 4000),28017-92-7,Nitroso-cyclopropan,C3H5NO,C3H5NO,71.0788,isocyclic,,KFBFBVWPLFNCTQ-UHFFFAOYSA-N,,,,Identification(10); Physical Data(7); Spectra(6),3.0,9.0,69,,,,,,Article; Merritt; Ruff; Journal of the American Chemical Society; vol. 86; (1964); p. 1392;,https://www.reaxys.com/reaxys/secured/hopinto.do?context=C&query=CNR.CNR%3D3771891&database=RX&origin=ReaxysOutput&ln=
,N\C=C\C=O,2408459.0,https://www.reaxys.com/reaxys/secured/hopinto.do?context=S&query=IDE.XRN%3D2408459&database=RX&origin=ReaxysOutput&ln=,(597 of 4000),28636-16-0,3-aminoacrylaldehyde; 3-aminoacrolein,C3H5NO,C3H5NO,71.0788,acyclic,,UCRYVFBKCBUURB-OWOJBTEDSA-N,,,,Identification(13); Physical Data(4); Spectra(15),8.0,17.0,105 - 106,,,,,,"Article; Terpinski; Dabrowski; Journal of Molecular Structure; vol. 4; (1969); p. 285,286,287,289,290;",https://www.reaxys.com/reaxys/secured/hopinto.do?context=C&query=CNR.CNR%3D4851504&database=RX&origin=ReaxysOutput&ln=
,[H]\C(C=C)=N\O,2689061.0,https://www.reaxys.com/reaxys/secured/hopinto.do?context=S&query=IDE.XRN%3D2689061&database=RX&origin=ReaxysOutput&ln=,(598 of 4000),39847-72-8,s-trans-(Z)-acrylaldehyde oxime; s-trans-anti-Acroleinoxim; propenone oxime ether; acrolein oxime,C3H5NO,C3H5NO,71.0788,acyclic,,KMNIXISXZFPRDC-ARJAWSKDSA-N,,,,Identification(7); Physical Data(3); Spectra(3),1.0,3.0,33 - 35,,,,,,Article; Masuda et al.; Nippon Kagaku Kaishi/Journal of the Chemical Society of Japan; (1974); p. 608;,https://www.reaxys.com/reaxys/secured/hopinto.do?context=C&query=CNR.CNR%3D4915158&database=RX&origin=ReaxysOutput&ln=
,NOC=C=C,6715960.0,https://www.reaxys.com/reaxys/secured/hopinto.do?context=S&query=IDE.XRN%3D6715960&database=RX&origin=ReaxysOutput&ln=,(599 of 4000),,aminoallenylether,C3H5NO,C3H5NO,71.0788,acyclic,,PXEDSGWKDQSZQR-UHFFFAOYSA-N,,,,Identification(6); Physical Data(1); Spectra(2),1.0,1.0,163 - 166,,,,,,"Article; Galons, Herve; Fiet, Jean; Combet-Farnoux, Claude; Miocque, Marcel; Bram, Georges; Molecular Crystals and Liquid Crystals (1969-1991); vol. 161; (1988); p. 521 - 528;",https://www.reaxys.com/reaxys/secured/hopinto.do?context=C&query=CNR.CNR%3D5860044&database=RX&origin=ReaxysOutput&ln=
,CCN=N#N,956580.0,https://www.reaxys.com/reaxys/secured/hopinto.do?context=S&query=IDE.XRN%3D956580&database=RX&origin=ReaxysOutput&ln=,(600 of 4000),871-31-8,ethyl azide; Aethylazid; azidoethane; Ethylazid,CH3CH2N3,C2H5N3,71.0818,acyclic,,UCSVJZQSZZAKLD-UHFFFAOYSA-N,,,,Identification(32); Physical Data(28); Spectra(29),106.0,116.0,-113.15,,,,,,"Article; Nielsen, C. J.; Kosa, K.; Priebe, H.; Sjorgen, C. E.; Spectrochimica Acta Part A: Molecular and Biomolecular Spectroscopy; vol. 44; 4; (1988); p. 409 - 422;",https://www.reaxys.com/reaxys/secured/hopinto.do?context=C&query=CNR.CNR%3D5818565&database=RX&origin=ReaxysOutput&ln=
,CC1(C)CN1,1060.0,https://www.reaxys.com/reaxys/secured/hopinto.do?context=S&query=IDE.XRN%3D1060&database=RX&origin=ReaxysOutput&ln=,(601 of 4000),2658-24-4,"2,2-dimethylaziridine; 2,2-Dimethylaziridin",(CH3)2CCH2NH,C4H9N,71.1222,heterocyclic,,FGRJGEWVJCCOJJ-UHFFFAOYSA-N,,,,Identification(39); Physical Data(28); Spectra(21),249.0,159.0,-47.1,,,,,,Article; Karabinos; Serijan; Journal of the American Chemical Society; vol. 67; (1945); p. 1856;,https://www.reaxys.com/reaxys/secured/hopinto.do?context=C&query=CNR.CNR%3D975982&database=RX&origin=ReaxysOutput&ln=
,C[C@@H]1N[C@H]1C,79767.0,https://www.reaxys.com/reaxys/secured/hopinto.do?context=S&query=IDE.XRN%3D79767&database=RX&origin=ReaxysOutput&ln=,(602 of 4000),151526-76-0,"(2S,3S)-2,3-dimethylaziridine",C4H9N,C4H9N,71.1222,heterocyclic,,DNPSMEGHIHDFAJ-IMJSIDKUSA-N,,,,Identification(7); Physical Data(12); Spectra(5),11.0,10.0,-26 - -23,,,"(S)-trans-2,3-dimethyl-aziridine",,,"Article; Dickey et al.; Journal of the American Chemical Society; vol. 74; (1952); p. 944,947,950;",https://www.reaxys.com/reaxys/secured/hopinto.do?context=C&query=CNR.CNR%3D1876135&database=RX&origin=ReaxysOutput&ln=
,C[C@H]1N[C@H]1C,79768.0,https://www.reaxys.com/reaxys/secured/hopinto.do?context=S&query=IDE.XRN%3D79768&database=RX&origin=ReaxysOutput&ln=,(603 of 4000),930-19-8,"cis-2,3-dimethylaziridine",HN(CH(CH3))2,C4H9N,71.1222,heterocyclic,,DNPSMEGHIHDFAJ-ZXZARUISSA-N,,,,Identification(11); Physical Data(7); Spectra(4),28.0,21.0,-9.3 - -6.2,,,,,,"Article; Dickey et al.; Journal of the American Chemical Society; vol. 74; (1952); p. 944,947,950;",https://www.reaxys.com/reaxys/secured/hopinto.do?context=C&query=CNR.CNR%3D1876135&database=RX&origin=ReaxysOutput&ln=
,C1CCNC1,102395.0,https://www.reaxys.com/reaxys/secured/hopinto.do?context=S&query=IDE.XRN%3D102395&database=RX&origin=ReaxysOutput&ln=,(604 of 4000),123-75-1,pyrrolidine,HN(C4H8),C4H9N,71.1222,heterocyclic,,RWRDLPDLKQPQOW-UHFFFAOYSA-N,,,,Identification(5397); Physical Data(333); Spectra(151); Bioactivity(1183),27910.0,22764.0,-62.8,,,,,,"Article; Dobrzycki, Lukasz; Taraszewska, Paulina; Boese, Roland; Cyrański, Micha K.; Crystal Growth and Design; vol. 15; 10; (2015); p. 4804 - 4812;",https://www.reaxys.com/reaxys/secured/hopinto.do?context=C&query=CNR.CNR%3D67274233&database=RX&origin=ReaxysOutput&ln=
,CNCC=C,1098387.0,https://www.reaxys.com/reaxys/secured/hopinto.do?context=S&query=IDE.XRN%3D1098387&database=RX&origin=ReaxysOutput&ln=,(605 of 4000),627-37-2,N-methyl-N-allylamine; N-methylallylamine,CH2CHCH2NH(CH3),C4H9N,71.1222,acyclic,,IOXXVNYDGIXMIP-UHFFFAOYSA-N,,,,Identification(128); Physical Data(21); Spectra(5); Bioactivity(30),878.0,599.0,76,CH2Cl2; hexane,,,,,"Article; Masse, Guy; Sturtz, Georges; Synthesis; 11; (1988); p. 907 - 910;",https://www.reaxys.com/reaxys/secured/hopinto.do?context=C&query=CNR.CNR%3D5640532&database=RX&origin=ReaxysOutput&ln=
,CN=C(C)C,1733846.0,https://www.reaxys.com/reaxys/secured/hopinto.do?context=S&query=IDE.XRN%3D1733846&database=RX&origin=ReaxysOutput&ln=,(606 of 4000),6407-34-7; 19885-74-6,N-methylacetonimine; methyl-1 ethylideneamine,C4H9N,C4H9N,71.1222,acyclic,,GPASKFIFXOCRNP-UHFFFAOYSA-N,,,,Identification(25); Physical Data(20); Spectra(17),53.0,49.0,64 - 75,,,,,,"Article; Yurovskaya, M. A.; Afanas'ev, A. Z.; Chertkov, V. A.; Gizatullina, E. M.; Bundel', Yu. G.; Chemistry of Heterocyclic Compounds; vol. 23; 12; (1987); p. 1305 - 1308; Khimiya Geterotsiklicheskikh Soedinenii; 12; (1987); p. 1625 - 1628;",https://www.reaxys.com/reaxys/secured/hopinto.do?context=C&query=CNR.CNR%3D5566541&database=RX&origin=ReaxysOutput&ln=
,CC(C)N=C,1734634.0,https://www.reaxys.com/reaxys/secured/hopinto.do?context=S&query=IDE.XRN%3D1734634&database=RX&origin=ReaxysOutput&ln=,(607 of 4000),77037-04-8,N-Methylenisopropylamin; N-methylideneisopropylamine; Formaldehyd-N-isopropylimin; isopropyl-methylen-amine; Formaldehyd-isopropylimin,C4H9N,C4H9N,71.1222,acyclic,,MGKTYORWSGVLRD-UHFFFAOYSA-N,,,,Identification(14); Physical Data(5); Spectra(9); Bioactivity(1),32.0,19.0,-99,,,,,,Patent; DUPONT DE NEMOURS INC; US2729679; (1951); A;,https://www.reaxys.com/reaxys/secured/hopinto.do?context=C&query=CNR.CNR%3D1255094&database=RX&origin=ReaxysOutput&ln=
,C[SiH2]C#N,1734663.0,https://www.reaxys.com/reaxys/secured/hopinto.do?context=S&query=IDE.XRN%3D1734663&database=RX&origin=ReaxysOutput&ln=,(608 of 4000),18090-16-9,monomethylsilyl cyanide; Methylsilyl-cyanid; Monomethylsilylcyanid; cyano-methyl-silane; Cyan-methyl-silan; Methyl-silancarbonitril; methylsilyl cyanide,C2H5NSi,C2H5NSi,71.1539,acyclic,,ZRTISADYBVPSRL-UHFFFAOYSA-N,,,,Identification(8); Physical Data(3); Spectra(9),3.0,9.0,-23.1,,,,,,"Article; Emeleus et al.; Zeitschrift fur Anorganische und Allgemeine Chemie; vol. 283; (1956); p. 74,77;",https://www.reaxys.com/reaxys/secured/hopinto.do?context=C&query=CNR.CNR%3D1278068&database=RX&origin=ReaxysOutput&ln=
,OB(O)C=C,1738958.0,https://www.reaxys.com/reaxys/secured/hopinto.do?context=S&query=IDE.XRN%3D1738958&database=RX&origin=ReaxysOutput&ln=,(611 of 4000),4363-34-2,vinylboronic acid; Vinylboronsaeure; ethenylboronic acid; vinyl boronic acid pinacol ester,CH2CHB(OH)2,C2H5BO2,71.8715,acyclic,,YFXCNIVBAVFOBX-UHFFFAOYSA-N,,,,Identification(83); Physical Data(8); Spectra(9),112.0,152.0,83,,,,,,Article; Kato et al.; Bulletin of the Chemical Society of Japan; vol. 39; (1966); p. 2018;,https://www.reaxys.com/reaxys/secured/hopinto.do?context=C&query=CNR.CNR%3D4353642&database=RX&origin=ReaxysOutput&ln=
,[C-]#N.O=[N+]=O,27695543.0,https://www.reaxys.com/reaxys/secured/hopinto.do?context=S&query=IDE.XRN%3D27695543&database=RX&origin=ReaxysOutput&ln=,(614 of 4000),,nitryl cyanide,NO2(1+)*CN(1-),CN*NO2,72.0232,,,AAVAYXVLTJJWKF-UHFFFAOYSA-N,,,,Identification(6); Physical Data(5); Spectra(5),12.0,1.0,-85.9 - -84.5,,supporting information,,,,"Article; Rahm, Martin; Belanger-Chabot, Guillaume; Haiges, Ralf; Christe, Karl O.; Angewandte Chemie - International Edition; vol. 53; 27; (2014); p. 6893 - 6897;",https://www.reaxys.com/reaxys/secured/hopinto.do?context=C&query=CNR.CNR%3D63782556&database=RX&origin=ReaxysOutput&ln=
,F.NN,16521456.0,https://www.reaxys.com/reaxys/secured/hopinto.do?context=S&query=IDE.XRN%3D16521456&database=RX&origin=ReaxysOutput&ln=,(615 of 4000),,hydrazinium(2+) difluoride; hydrazinium hydrofluoride,N2H4*2HF,2FH*H4N2,72.0578,,,DSAWYFXJVXQFIV-UHFFFAOYSA-N,,,,Identification(5); Physical Data(6); Spectra(1),36.0,32.0,105,,,,,,"Article; Curtius, Th.; Schulz, H.; Journal fur praktische Chemie (Leipzig 1954); vol. 42; (1890); p. 533;; ; Article; Gmelin Handbuch der Anorganischen Chemie; vol. NH4: MVol.2; 13, page 552 - 568; (from Gmelin)",https://www.reaxys.com/reaxys/secured/hopinto.do?context=C&query=CNR.CNR%3D7210385&database=RX&origin=ReaxysOutput&ln=
,O=C1CCO1,1360.0,https://www.reaxys.com/reaxys/secured/hopinto.do?context=S&query=IDE.XRN%3D1360&database=RX&origin=ReaxysOutput&ln=,(616 of 4000),57-57-8,β-Propiolactone; oxetan-2-one; propiolactone; beta-propiolactone; 2-oxetanone; β-butyrolactone,C2H4CO2,C3H4O2,72.0636,heterocyclic,,VEZXCJBBBCKRPI-UHFFFAOYSA-N,,,,Identification(810); Physical Data(107); Spectra(65); Bioactivity(96),933.0,1420.0,-33.29,,,,,,"Article; Lebedev, B. V.; Yevstropov, A. A.; Journal of Chemical Thermodynamics; vol. 15; 2; (1983); p. 115 - 128;",https://www.reaxys.com/reaxys/secured/hopinto.do?context=C&query=CNR.CNR%3D5831908&database=RX&origin=ReaxysOutput&ln=
,OC(=O)C=C,635743.0,https://www.reaxys.com/reaxys/secured/hopinto.do?context=S&query=IDE.XRN%3D635743&database=RX&origin=ReaxysOutput&ln=,(617 of 4000),79-10-7,acrylic acid; 2-propenoic acid,CH2CHC(O)OH,C3H4O2,72.0636,acyclic,,NIXOWILDQLNWCW-UHFFFAOYSA-N,,,,Identification(13907); Physical Data(302); Spectra(147); Bioactivity(1022),7088.0,18609.0,92 - 94,,,,,,"Article; Panda, Niranjan; Sahoo, Kanchanbala; Advanced Synthesis and Catalysis; vol. 361; 3; (2019); p. 617 - 627;",https://www.reaxys.com/reaxys/secured/hopinto.do?context=C&query=CNR.CNR%3D75681103&database=RX&origin=ReaxysOutput&ln=
,O=CCC=O,1209262.0,https://www.reaxys.com/reaxys/secured/hopinto.do?context=S&query=IDE.XRN%3D1209262&database=RX&origin=ReaxysOutput&ln=,(618 of 4000),542-78-9,Malondialdehyde; propanedial,CHOCH2CHO,C3H4O2,72.0636,acyclic,,WSMYVTOQOOLQHP-UHFFFAOYSA-N,,,,Identification(56664); Physical Data(22); Spectra(40); Bioactivity(2965),216.0,57114.0,72 - 74,,,,,,Article; Mashio; Kimura; Nippon Kagaku Zasshi; vol. 81; (1960); p. 434; Chem.Abstr.; 15227; (1961);,https://www.reaxys.com/reaxys/secured/hopinto.do?context=C&query=CNR.CNR%3D4486822&database=RX&origin=ReaxysOutput&ln=
,OC=CC=O,1734967.0,https://www.reaxys.com/reaxys/secured/hopinto.do?context=S&query=IDE.XRN%3D1734967&database=RX&origin=ReaxysOutput&ln=,(619 of 4000),927-76-4,malondialdehyde; MDA,C3H4O2,C3H4O2,72.0636,acyclic,,GMSHJLUJOABYOM-UHFFFAOYSA-N,,,,Identification(14); Physical Data(4); Spectra(1),34.0,19.0,72 - 74,,,,,,"Article; Huettel; Chemische Berichte; vol. 74; (1941); p. 1828,1829;; ; Patent; CHROMOGEN; US2465586; (1943); A;",https://www.reaxys.com/reaxys/secured/hopinto.do?context=C&query=CNR.CNR%3D1380305&database=RX&origin=ReaxysOutput&ln=
,ONCC#N,2497225.0,https://www.reaxys.com/reaxys/secured/hopinto.do?context=S&query=IDE.XRN%3D2497225&database=RX&origin=ReaxysOutput&ln=,(620 of 4000),17643-45-7,α-Hydroxyamino-acetonitril; Hydroxyamino-acetonitril,C2H4N2O,C2H4N2O,72.0666,acyclic,,ZFEALYQDYUPIGS-UHFFFAOYSA-N,,,,Identification(8); Physical Data(2); Spectra(1),1.0,3.0,94 - 95,,,,,,Article; Masui; Yijima; Yakugaku Zasshi/Journal of the Pharmaceutical Society of Japan; vol. 87; 6; (1967); p. 702 - 703;,https://www.reaxys.com/reaxys/secured/hopinto.do?context=C&query=CNR.CNR%3D4566640&database=RX&origin=ReaxysOutput&ln=
,[2H]C(=C)C(N)=O,32973778.0,https://www.reaxys.com/reaxys/secured/hopinto.do?context=S&query=IDE.XRN%3D32973778&database=RX&origin=ReaxysOutput&ln=,(621 of 4000),,2‐d-acrylamide,C3H4(2)HNO,C3H5NO,72.0709,,,HRPVXLWXLXDGHG-VMNATFBRSA-N,,,,Identification(7); Physical Data(3); Spectra(5),1.0,3.0,84 - 85,,,,,,"Article; Salin, Alexey V.; Musin, Rashid Z.; Journal of labelled compounds and radiopharmaceuticals; vol. 61; 8; (2018); p. 595 - 598;",https://www.reaxys.com/reaxys/secured/hopinto.do?context=C&query=CNR.CNR%3D74132842&database=RX&origin=ReaxysOutput&ln=
,C[Al](C)C,3587197.0,https://www.reaxys.com/reaxys/secured/hopinto.do?context=S&query=IDE.XRN%3D3587197&database=RX&origin=ReaxysOutput&ln=,(622 of 4000),75-24-1,trimethylaluminum; trimethylaluminium; AlMe3; TMA; Me3Al; trimethylalane; tris(methyl)aluminum; trimethylalumane; TMAl,CH3Al(CH3)2,C3H9Al,72.086,acyclic,,JLTRXTDYQLMHGR-UHFFFAOYSA-N,,,,Identification(5612); Physical Data(202); Spectra(112),9769.0,10171.0,15,,Paragraph 0037,,,,Patent; DOW INC; US2013/184480; (2013); A1;,https://www.reaxys.com/reaxys/secured/hopinto.do?context=C&query=CNR.CNR%3D35502260&database=RX&origin=ReaxysOutput&ln=
,C[C@H]1O[C@H]1C,79770.0,https://www.reaxys.com/reaxys/secured/hopinto.do?context=S&query=IDE.XRN%3D79770&database=RX&origin=ReaxysOutput&ln=,(623 of 4000),925669-95-0,"2,3-cis-epoxybutane; cis-2,3-Epoxybutane",CH3CHOCHCH3,C4H8O,72.1069,heterocyclic,,PQXKWPLDPFFDJP-ZXZARUISSA-N,,,,Identification(77); Physical Data(43); Spectra(28); Bioactivity(1),363.0,352.0,-83.4,,,,,,"Article; Grivsky; Bulletin des Societes Chimiques Belges; vol. 51; (1942); p. 99,103;",https://www.reaxys.com/reaxys/secured/hopinto.do?context=C&query=CNR.CNR%3D1382018&database=RX&origin=ReaxysOutput&ln=
,C[C@@H]1O[C@H]1C,79772.0,https://www.reaxys.com/reaxys/secured/hopinto.do?context=S&query=IDE.XRN%3D79772&database=RX&origin=ReaxysOutput&ln=,(624 of 4000),21490-63-1,"2,3-trans-epoxybutane; trans-2,3-Epoxybutane",OCH(CH3)CH(CH3),C4H8O,72.1069,heterocyclic,racemate,PQXKWPLDPFFDJP-IMJSIDKUSA-N,,,,Identification(41); Physical Data(27); Spectra(21),279.0,229.0,-82.6,,,,,,"Article; Grivsky; Bulletin des Societes Chimiques Belges; vol. 51; (1942); p. 99,103;",https://www.reaxys.com/reaxys/secured/hopinto.do?context=C&query=CNR.CNR%3D1382018&database=RX&origin=ReaxysOutput&ln=
,CC[C@@H]1CO1,79776.0,https://www.reaxys.com/reaxys/secured/hopinto.do?context=S&query=IDE.XRN%3D79776&database=RX&origin=ReaxysOutput&ln=,(625 of 4000),106-88-7; 3760-95-0; 30608-62-9; 55555-96-9,"(R)-(+)-1,2-epoxybutane; (R)-2-ethyloxirane; (2R)-2-ethyloxirane; 1,2-epoxybutane; (R)-butylene oxide",C4H8O,C4H8O,72.1069,heterocyclic,,RBACIKXCRWGCBB-SCSAIBSYSA-N,,,,Identification(46); Physical Data(14); Spectra(8); Bioactivity(8),128.0,124.0,61,,,,,,"Article; Nakajima,T. et al.; Bulletin of the Chemical Society of Japan; vol. 48; (1975); p. 960 - 965;",https://www.reaxys.com/reaxys/secured/hopinto.do?context=C&query=CNR.CNR%3D112615&database=RX&origin=ReaxysOutput&ln=
,C1CCOC1,102391.0,https://www.reaxys.com/reaxys/secured/hopinto.do?context=S&query=IDE.XRN%3D102391&database=RX&origin=ReaxysOutput&ln=,(626 of 4000),109-99-9,tetrahydrofuran; Tetrahydrofurane; THF,CH2CH2OCH2CH2,C4H8O,72.1069,heterocyclic,,WYURNTSHIVDZCO-UHFFFAOYSA-N,,,,Identification(3180); Physical Data(2306); Spectra(160); Bioactivity(905),24220.0,16385.0,-108.576,,supporting information,,,,"Article; Scholz, Roland; Hellmann, Gunther; Rohs, Susanne; Raabe, Gerhard; Runsink, Jan; Oezdemir, Diana; Luche, Olaf; Hess, Thomas; Giesen, Alexander W.; Atodiresei, Juliana; Lindner, Hans J.; Gais, Hans-Joachim; European Journal of Organic Chemistry; 24; (2010); p. 4559 - 4587;",https://www.reaxys.com/reaxys/secured/hopinto.do?context=C&query=CNR.CNR%3D8923001&database=RX&origin=ReaxysOutput&ln=