Structure: Image,SMILES,Substance Identification: Reaxys Registry Number,Links to Reaxys,Data Count,CAS Registry Number,Chemical Name,Linear Structure Formula,Molecular Formula,Molecular Weight,Type of Substance,Type and Modification,InChI Key,Composition: Comp. Name,Composition: Comp. Conc.,Composition: Comp. Attrib.,Field Availability,Number of Reactions,Number of References,Melting Point: Melting Point [C],Solvent (Melting Point),Location,Comment (Melting Point),Crystallizes With,Amount (Melting Point) [mol],References,Links to Reaxys.1
,CC1(C)CO1,102408.0,https://www.reaxys.com/reaxys/secured/hopinto.do?context=S&query=IDE.XRN%3D102408&database=RX&origin=ReaxysOutput&ln=,(627 of 4000),558-30-5,"2-Methyl-1,2-epoxypropane; Isobutylene oxide",(CH3)2C2H2O,C4H8O,72.1069,heterocyclic,,GELKGHVAFRCJNA-UHFFFAOYSA-N,,,,Identification(320); Physical Data(40); Spectra(35); Bioactivity(74),1498.0,1438.0,49.6 - 60.2,,,,,,"Article; Sekiguchi et al.; Bulletin of the Chemical Society of Japan; vol. 43; (1970); p. 2523,2525;",https://www.reaxys.com/reaxys/secured/hopinto.do?context=C&query=CNR.CNR%3D3300839&database=RX&origin=ReaxysOutput&ln=
,CCCC=O,506061.0,https://www.reaxys.com/reaxys/secured/hopinto.do?context=S&query=IDE.XRN%3D506061&database=RX&origin=ReaxysOutput&ln=,(628 of 4000),123-72-8,butyraldehyde; butyrylaldehyde; butanal,CH3CH2CH2CH(O),C4H8O,72.1069,acyclic,,ZTQSAGDEMFDKMZ-UHFFFAOYSA-N,,,,Identification(4541); Physical Data(400); Spectra(149); Bioactivity(813),11708.0,14767.0,159 - 162,,,,,,"Article; Hajipour, Abdol Reza; Rafiee, Fatemeh; Ruoho, Arnold E.; Synthetic Communications; vol. 36; 17; (2006); p. 2563 - 2568;",https://www.reaxys.com/reaxys/secured/hopinto.do?context=C&query=CNR.CNR%3D6579707&database=RX&origin=ReaxysOutput&ln=
,CC(C)C=O,605330.0,https://www.reaxys.com/reaxys/secured/hopinto.do?context=S&query=IDE.XRN%3D605330&database=RX&origin=ReaxysOutput&ln=,(629 of 4000),78-84-2,isobutyraldehyde; 2-Methylpropanal; isobutyric aldehyde,CH(CH3)2COH,C4H8O,72.1069,acyclic,,AMIMRNSIRUDHCM-UHFFFAOYSA-N,,,,Identification(2910); Physical Data(289); Spectra(124); Bioactivity(755),16003.0,14723.0,181 - 183,,,,,,"Article; Nakamoto et al.; Kogyo Kagaku zasshi / Journal of the Society of Chemical Industry; vol. 72; (1969); p. 2594,2595, 2596, 2597; Chem.Abstr.; vol. 72; 100192; (1970);",https://www.reaxys.com/reaxys/secured/hopinto.do?context=C&query=CNR.CNR%3D4103296&database=RX&origin=ReaxysOutput&ln=
,CCOC=C,605351.0,https://www.reaxys.com/reaxys/secured/hopinto.do?context=S&query=IDE.XRN%3D605351&database=RX&origin=ReaxysOutput&ln=,(630 of 4000),109-92-2,ethyl vinyl ether; vinyl ethyl ether,CHCHOC2H5H,C4H8O,72.1069,acyclic,,FJKIXWOMBXYWOQ-UHFFFAOYSA-N,,,,Identification(1149); Physical Data(149); Spectra(84); Bioactivity(307),8891.0,6109.0,-115.4,,,,,,"Article; Rowlands et al.; Journal of Organic Chemistry; vol. 17; (1952); p. 807,808;",https://www.reaxys.com/reaxys/secured/hopinto.do?context=C&query=CNR.CNR%3D1510013&database=RX&origin=ReaxysOutput&ln=
,CCC(C)=O,741880.0,https://www.reaxys.com/reaxys/secured/hopinto.do?context=S&query=IDE.XRN%3D741880&database=RX&origin=ReaxysOutput&ln=,(631 of 4000),78-93-3,butanone; Ethyl methyl ketone; 2-butanone,CH3C(O)CH2CH3,C4H8O,72.1069,acyclic,,ZWEHNKRNPOVVGH-UHFFFAOYSA-N,,,,Identification(4415); Physical Data(2169); Spectra(384); Bioactivity(771),7244.0,13121.0,-86,,Page/Page column 58,,,,Patent; AICURIS GMBH &amp; CO. KG; WO2018/96177; (2018); A1;,https://www.reaxys.com/reaxys/secured/hopinto.do?context=C&query=CNR.CNR%3D73982778&database=RX&origin=ReaxysOutput&ln=
,C\C=C\CO,1361395.0,https://www.reaxys.com/reaxys/secured/hopinto.do?context=S&query=IDE.XRN%3D1361395&database=RX&origin=ReaxysOutput&ln=,(632 of 4000),504-61-0,(E)-but-2-enol; crotyl alcohol,HOC4H7,C4H8O,72.1069,acyclic,,WCASXYBKJHWFMY-NSCUHMNNSA-N,,,,Identification(922); Physical Data(56); Spectra(48); Bioactivity(89),916.0,1700.0,114,,supporting information,,,,"Article; Heckenbichler, Kathrin; Schweiger, Anna; Brandner, Lea Alexandra; Binter, Alexandra; Toplak, Marina; Macheroux, Peter; Gruber, Karl; Breinbauer, Rolf; Angewandte Chemie - International Edition; vol. 57; 24; (2018); p. 7240 - 7244; Angew. Chem.; 130; (2018); p. 7360 - 7364,5;",https://www.reaxys.com/reaxys/secured/hopinto.do?context=C&query=CNR.CNR%3D74009391&database=RX&origin=ReaxysOutput&ln=
,CO\C=C/C,1719366.0,https://www.reaxys.com/reaxys/secured/hopinto.do?context=S&query=IDE.XRN%3D1719366&database=RX&origin=ReaxysOutput&ln=,(633 of 4000),4188-68-5,methyl (Z)-prop-1-enyl ether; methyl prop-1-enyl ether; 1-methoxypropene; methoxypropene; 1c-methoxy-propene; methyl-cis-propenyl ether; Methyl-cis-propenyl-aether; methyl (1-propenyl) ether; methyl propenyl ether,C4H8O,C4H8O,72.1069,acyclic,,QHMVQKOXILNZQR-ARJAWSKDSA-N,,,,Identification(15); Physical Data(30); Spectra(23),31.0,75.0,-114.41,,,,,,Article; Howard et al.; Journal of Organic Chemistry; vol. 26; (1961); p. 3574;,https://www.reaxys.com/reaxys/secured/hopinto.do?context=C&query=CNR.CNR%3D1510272&database=RX&origin=ReaxysOutput&ln=
,CO\C=C\C,1719367.0,https://www.reaxys.com/reaxys/secured/hopinto.do?context=S&query=IDE.XRN%3D1719367&database=RX&origin=ReaxysOutput&ln=,(634 of 4000),4188-69-6,(E)-1-Methoxy-1-propen,C4H8O,C4H8O,72.1069,acyclic,,QHMVQKOXILNZQR-ONEGZZNKSA-N,,,,Identification(36); Physical Data(32); Spectra(26),26.0,62.0,-99.71,,,,,,Article; Howard et al.; Journal of Organic Chemistry; vol. 26; (1961); p. 3574;,https://www.reaxys.com/reaxys/secured/hopinto.do?context=C&query=CNR.CNR%3D1510272&database=RX&origin=ReaxysOutput&ln=
,C\C=C/CO,1719375.0,https://www.reaxys.com/reaxys/secured/hopinto.do?context=S&query=IDE.XRN%3D1719375&database=RX&origin=ReaxysOutput&ln=,(635 of 4000),4088-60-2,cis-2-buten-1-ol; (Z)-2-buten-1-ol; (Z)-but-2-en-1-ol; (Z)-crotyl alcohol; cis-but-2-en-1-ol,OHCH2CHCHCH3,C4H8O,72.1069,acyclic,,WCASXYBKJHWFMY-IHWYPQMZSA-N,,,,Identification(62); Physical Data(46); Spectra(51),173.0,211.0,112,,supporting information,,,,"Article; Heckenbichler, Kathrin; Schweiger, Anna; Brandner, Lea Alexandra; Binter, Alexandra; Toplak, Marina; Macheroux, Peter; Gruber, Karl; Breinbauer, Rolf; Angewandte Chemie - International Edition; vol. 57; 24; (2018); p. 7240 - 7244; Angew. Chem.; 130; (2018); p. 7360 - 7364,5;",https://www.reaxys.com/reaxys/secured/hopinto.do?context=C&query=CNR.CNR%3D74009391&database=RX&origin=ReaxysOutput&ln=
,COC1CC1,1918444.0,https://www.reaxys.com/reaxys/secured/hopinto.do?context=S&query=IDE.XRN%3D1918444&database=RX&origin=ReaxysOutput&ln=,(636 of 4000),540-47-6,cyclopropyl methyl ether; Methoxycyclopropan,C4H8O,C4H8O,72.1069,isocyclic,,ZUVAACFIEPYYOP-UHFFFAOYSA-N,,,,Identification(54); Physical Data(16); Spectra(10); Bioactivity(4),25.0,61.0,-119.08,,,,,,"Article; Olson et al.; Journal of the American Chemical Society; vol. 69; (1947); p. 2451,2453;",https://www.reaxys.com/reaxys/secured/hopinto.do?context=C&query=CNR.CNR%3D1549287&database=RX&origin=ReaxysOutput&ln=
,C#C.COC,3666570.0,https://www.reaxys.com/reaxys/secured/hopinto.do?context=S&query=IDE.XRN%3D3666570&database=RX&origin=ReaxysOutput&ln=,(637 of 4000),,dimethyl ether ; compound with acetylene; Dimethyl-aether; Verbindung mit Acetylen,C2H6O*C2H2,C2H2*C2H6O,72.1069,acyclic,,DKZPDGJXVYLKHD-UHFFFAOYSA-N,,,,Identification(6); Physical Data(1); Spectra(1),,2.0,-117.4,,,,,,Article; Baume; Germann; Comptes Rendus Hebdomadaires des Seances de l'Academie des Sciences; vol. 153; (1911); p. 571; Journal de Chimie Physique et de Physico-Chimie Biologique; vol. 12; (1914); p. 243;,https://www.reaxys.com/reaxys/secured/hopinto.do?context=C&query=CNR.CNR%3D1306317&database=RX&origin=ReaxysOutput&ln=
,CC1(C)NN1,102450.0,https://www.reaxys.com/reaxys/secured/hopinto.do?context=S&query=IDE.XRN%3D102450&database=RX&origin=ReaxysOutput&ln=,(638 of 4000),4901-76-2,"3,3-dimethyldiaziridine; 3,3-Dimethyl-diaziridin; 3,3-dimethyl-1,2-diazacyclopropane",C3H8N2,C3H8N2,72.1099,heterocyclic,,YIOCAJQMPUYWMT-UHFFFAOYSA-N,,,,Identification(17); Physical Data(11); Spectra(7),30.0,29.0,40,,Page/Page column 20,,,,Patent; SHEVTSOV ALEXANDER VLADIMIROVICH; CRO CONSULTING; WO2013/111118; (2013); A2;,https://www.reaxys.com/reaxys/secured/hopinto.do?context=C&query=CNR.CNR%3D38050899&database=RX&origin=ReaxysOutput&ln=
,C1CNNC1,102461.0,https://www.reaxys.com/reaxys/secured/hopinto.do?context=S&query=IDE.XRN%3D102461&database=RX&origin=ReaxysOutput&ln=,(639 of 4000),504-70-1,"pyrazolidine; Pyrazolidin; 1,2-diazacyclopentane",C3H8N2,C3H8N2,72.1099,heterocyclic,,USPWKWBDZOARPV-UHFFFAOYSA-N,,,,Identification(179); Physical Data(10); Spectra(6),68.0,196.0,10 - 12,,,nach Destillation.,,,"Article; Buhle et al.; Journal of the American Chemical Society; vol. 65; (1943); p. 29,32;",https://www.reaxys.com/reaxys/secured/hopinto.do?context=C&query=CNR.CNR%3D625939&database=RX&origin=ReaxysOutput&ln=
,C1CNCN1,102462.0,https://www.reaxys.com/reaxys/secured/hopinto.do?context=S&query=IDE.XRN%3D102462&database=RX&origin=ReaxysOutput&ln=,(640 of 4000),504-74-5,Imidazolidine; tetrahydroimidazole,C3H8N2,C3H8N2,72.1099,heterocyclic,,WRYCSMQKUKOKBP-UHFFFAOYSA-N,,,,Identification(332); Physical Data(2); Spectra(1); Bioactivity(17),22.0,335.0,115 - 117,,,,,,Patent; SPARAMEDICA; ROCHE HOLDING AG; US4244957; (1981); A;,https://www.reaxys.com/reaxys/secured/hopinto.do?context=C&query=CNR.CNR%3D45287&database=RX&origin=ReaxysOutput&ln=
,CNN=CC,773702.0,https://www.reaxys.com/reaxys/secured/hopinto.do?context=S&query=IDE.XRN%3D773702&database=RX&origin=ReaxysOutput&ln=,(641 of 4000),17167-73-6,acetaldehyde methylhydrazone; Acetaldehyd-methylhydrazon,C3H8N2,C3H8N2,72.1099,acyclic,,WIMYYXRANPYBED-UHFFFAOYSA-N,,,,Identification(11); Physical Data(8); Spectra(9),19.0,21.0,50 - 60,,,,,,Article; Howard et al.; Journal of Organic Chemistry; vol. 26; (1961); p. 1082;,https://www.reaxys.com/reaxys/secured/hopinto.do?context=C&query=CNR.CNR%3D3257834&database=RX&origin=ReaxysOutput&ln=
,CN(C)N=C,1737195.0,https://www.reaxys.com/reaxys/secured/hopinto.do?context=S&query=IDE.XRN%3D1737195&database=RX&origin=ReaxysOutput&ln=,(642 of 4000),2035-89-4,"N-methyl-N-(methyleneamino)methanamine; formaldehyde dimethylhydrazone; formaldehyde N,N-dimethylhydrazone; 1,1-dimethyl-2-methylenehydrazine",H2CNN(CH3)2,C3H8N2,72.1099,acyclic,,NDNVSJIXYFNRDR-UHFFFAOYSA-N,,,,Identification(55); Physical Data(30); Spectra(24); Bioactivity(8),177.0,121.0,-103,,,,,,Article; Class et al.; Journal of the American Chemical Society; vol. 75; (1953); p. 2937;,https://www.reaxys.com/reaxys/secured/hopinto.do?context=C&query=CNR.CNR%3D1275292&database=RX&origin=ReaxysOutput&ln=
,CCCCC,969132.0,https://www.reaxys.com/reaxys/secured/hopinto.do?context=S&query=IDE.XRN%3D969132&database=RX&origin=ReaxysOutput&ln=,(643 of 4000),109-66-0,pentane; n-Pentane,(CH3CH2)2CH2,C5H12,72.1503,acyclic,,OFBQJSOFQDEBGM-UHFFFAOYSA-N,,,,Identification(1178); Physical Data(1949); Spectra(156); Bioactivity(278),1814.0,4908.0,-129.7 - -129,,,,,,Patent; AMGEN INC; US2008/75777; (2008); A1;,https://www.reaxys.com/reaxys/secured/hopinto.do?context=C&query=CNR.CNR%3D459428&database=RX&origin=ReaxysOutput&ln=
,CC(C)(C)C,1730722.0,https://www.reaxys.com/reaxys/secured/hopinto.do?context=S&query=IDE.XRN%3D1730722&database=RX&origin=ReaxysOutput&ln=,(644 of 4000),463-82-1,"2,2-dimethylpropane; neopentan",(CH3)3CCH3,C5H12,72.1503,acyclic,,CRSOQBOWXPBRES-UHFFFAOYSA-N,,,,Identification(1172); Physical Data(388); Spectra(98); Bioactivity(115),340.0,2288.0,54 - 56,,supporting information,,,,"Article; McKeever, Caitriona; Kaiser, Marcel; Rozas, Isabel; Journal of Medicinal Chemistry; vol. 56; 3; (2013); p. 700 - 711;",https://www.reaxys.com/reaxys/secured/hopinto.do?context=C&query=CNR.CNR%3D35466778&database=RX&origin=ReaxysOutput&ln=
,CCC(C)C,1730723.0,https://www.reaxys.com/reaxys/secured/hopinto.do?context=S&query=IDE.XRN%3D1730723&database=RX&origin=ReaxysOutput&ln=,(645 of 4000),78-78-4,methylbutane; Isopentan,CH3CH2CH(CH3)2,C5H12,72.1503,acyclic,,QWTDNUCVQCZILF-UHFFFAOYSA-N,,,,Identification(882); Physical Data(682); Spectra(66); Bioactivity(124),854.0,2410.0,68 - 70,,supporting information,,,,"Article; McKeever, Caitriona; Kaiser, Marcel; Rozas, Isabel; Journal of Medicinal Chemistry; vol. 56; 3; (2013); p. 700 - 711;",https://www.reaxys.com/reaxys/secured/hopinto.do?context=C&query=CNR.CNR%3D35466778&database=RX&origin=ReaxysOutput&ln=
,Cl.[15NH2][18OH],18105276.0,https://www.reaxys.com/reaxys/secured/hopinto.do?context=S&query=IDE.XRN%3D18105276&database=RX&origin=ReaxysOutput&ln=,(646 of 4000),100447-65-2,"{(15)N,(18)O}hydroxylamine hydrochloride",H3(15)N(18)O*ClH,ClH*H3NO,72.4848,Isotope or isotope containing compound,,WTDHULULXKLSOZ-BLYPUOBASA-N,,,,Identification(5); Physical Data(2),1.0,1.0,155,,,,,,"Note; Rajendran, Gurusamy; Van Etten, Robert L.; Inorganic Chemistry; vol. 25; 6; (1986); p. 876 - 878; (from Gmelin)",https://www.reaxys.com/reaxys/secured/hopinto.do?context=C&query=CNR.CNR%3D7867277&database=RX&origin=ReaxysOutput&ln=
,Cl[H].[H]O[H],14859379.0,https://www.reaxys.com/reaxys/secured/hopinto.do?context=S&query=IDE.XRN%3D14859379&database=RX&origin=ReaxysOutput&ln=,(647 of 4000),,hydrochloride dihydrate salt; hydrogen chloride*2H2O; hydrogen chloride dihydrate,HCl*2H2O,ClH*2H2O,72.4915,Coordination compound,,DKAGJZJALZXOOV-UHFFFAOYSA-N,,,,Identification(26); Physical Data(13); Spectra(1),6.0,46.0,-17.4,,,,,,"Article; Pickering; Chemische Berichte; vol. 26; (1893); p. 84 - 84;; ; Article; Gmelin Handbuch der Anorganischen Chemie; vol. Cl: MVol.; 46, page 136 - 138; (from Gmelin)",https://www.reaxys.com/reaxys/secured/hopinto.do?context=C&query=CNR.CNR%3D7444880&database=RX&origin=ReaxysOutput&ln=
,CC[N+]#[B-]F,3930260.0,https://www.reaxys.com/reaxys/secured/hopinto.do?context=S&query=IDE.XRN%3D3930260&database=RX&origin=ReaxysOutput&ln=,(649 of 4000),,N-Ethyl-B-fluorazin,C2H5BFN,C2H5BFN,72.8778,acyclic,,RBMWRBRSESWFSA-UHFFFAOYSA-N,,,,Identification(5); Physical Data(2),1.0,1.0,-21,,,,,,"Patent; Spitsin et al.; SU202950; (1977); A1; Ref. Zh., Khim.; vol. 13; N122P; (1978); Ref. Zh., Khim.; vol. 13; N122P; (1978);",https://www.reaxys.com/reaxys/secured/hopinto.do?context=C&query=CNR.CNR%3D4088012&database=RX&origin=ReaxysOutput&ln=
,[H]B([H])[H].CCCN,3663853.0,https://www.reaxys.com/reaxys/secured/hopinto.do?context=S&query=IDE.XRN%3D3663853&database=RX&origin=ReaxysOutput&ln=,(651 of 4000),,n-propylamine-borane; n-propylamine borane complex; propylamine; compound with borane; Propylamin; Verbindung mit Boran,CH3CH2CH2NH2*BH3,BH3*C3H9N,72.946,acyclic; Coordination compound,,LQYVRRIISBTGIN-UHFFFAOYSA-N,,,,Identification(6); Physical Data(2); Spectra(7),10.0,9.0,45,,,Decomp.at:>50 degreeC.,,,"Article; Noeth,H.; Beyer,H.; Chemische Berichte; vol. 93; (1960); p. 928 - 938;",https://www.reaxys.com/reaxys/secured/hopinto.do?context=C&query=CNR.CNR%3D35956&database=RX&origin=ReaxysOutput&ln=
,[H]B([H])[H].CN(C)C,3905060.0,https://www.reaxys.com/reaxys/secured/hopinto.do?context=S&query=IDE.XRN%3D3905060&database=RX&origin=ReaxysOutput&ln=,(652 of 4000),1231953-83-5,"trimethylamine borane; borane-trimethylamine; Trimethylamin-boran; N,N,N-Trimethyl-borazan",H3B*N(CH3)3,BH3*C3H9N,72.946,acyclic; Coordination compound,,WVMHLYQJPRXKLC-UHFFFAOYSA-N,,,,Identification(109); Physical Data(36); Spectra(35); Bioactivity(13),171.0,255.0,91 - 93,,,,,,"Article; Kelly, Henry C.; Yasui, Sritana C.; Twiss-Brooks, Andrea B.; Inorganic Chemistry; vol. 23; 15; (1984); p. 2220 - 2223; (from Gmelin)",https://www.reaxys.com/reaxys/secured/hopinto.do?context=C&query=CNR.CNR%3D7937908&database=RX&origin=ReaxysOutput&ln=
,[H]N([H])[H].CB(C)C,3905061.0,https://www.reaxys.com/reaxys/secured/hopinto.do?context=S&query=IDE.XRN%3D3905061&database=RX&origin=ReaxysOutput&ln=,(653 of 4000),,(methyl)3boron*NH3; B.B.B-Trimethyl-borazan,B(CH3)3*NH3,C3H9B*H3N,72.946,acyclic,,GPVMAMPCGCPARN-UHFFFAOYSA-N,,,,Identification(5); Physical Data(18); Spectra(1),12.0,32.0,74,,,,,,"Article; Wiberg, E.; Naturwissenschaften; vol. 35; (1948); p. 182 - 188;; ; Article; Gmelin Handbuch der Anorganischen Chemie; vol. B: SVol.1; 4.9, page 235 - 238; (from Gmelin)",https://www.reaxys.com/reaxys/secured/hopinto.do?context=C&query=CNR.CNR%3D7368797&database=RX&origin=ReaxysOutput&ln=
,FC(=O)C#N,1740188.0,https://www.reaxys.com/reaxys/secured/hopinto.do?context=S&query=IDE.XRN%3D1740188&database=RX&origin=ReaxysOutput&ln=,(656 of 4000),683-55-6,Fluorcarbonylcyanid; cyanoformyl fluoride,FC(O)CN,C2FNO,73.0265,acyclic,,CBBRQQYREAFULV-UHFFFAOYSA-N,,,,Identification(9); Physical Data(12); Spectra(9),9.0,14.0,-85,,,,,,"Article; Verbeek; Sundermeyer; Angewandte Chemie; vol. 79; (1967); p. 860;; ; Article; Verbeek; Sundermeyer; Angewandte Chemie - International Edition in English; vol. 6; 10; (1967); p. 871,872; Chem.Abstr.; vol. 68; 8824w; (1968);",https://www.reaxys.com/reaxys/secured/hopinto.do?context=C&query=CNR.CNR%3D3899311&database=RX&origin=ReaxysOutput&ln=
,C=CN(=O)=O,1209274.0,https://www.reaxys.com/reaxys/secured/hopinto.do?context=S&query=IDE.XRN%3D1209274&database=RX&origin=ReaxysOutput&ln=,(657 of 4000),3638-64-0,1-nitroethylene; nitroethylene; nitroethene; 1-nitro-ethene,CH2CHNO2,C2H3NO2,73.0513,acyclic,,RPMXALUWKZHYOV-UHFFFAOYSA-N,,,,Identification(202); Physical Data(49); Spectra(41),816.0,542.0,95 - 98,,,,,,"Article; Zarei, Mahmoud; Noroozizadeh, Ehsan; Moosavi-Zare, Ahmad R.; Zolfigol, Mohammad A.; Journal of Organic Chemistry; vol. 83; 7; (2018); p. 3645 - 3650;",https://www.reaxys.com/reaxys/secured/hopinto.do?context=C&query=CNR.CNR%3D73568171&database=RX&origin=ReaxysOutput&ln=
,O=CNC=O,1736856.0,https://www.reaxys.com/reaxys/secured/hopinto.do?context=S&query=IDE.XRN%3D1736856&database=RX&origin=ReaxysOutput&ln=,(658 of 4000),18197-22-3,N-formylformamide; Diformamid,C2H3NO2,C2H3NO2,73.0513,acyclic,,AIDQCFHFXWPAFG-UHFFFAOYSA-N,,,,Identification(38); Physical Data(13); Spectra(14),37.0,40.0,44,,,,,,"Article; Brand, Harald; Martens, Joern; Mayer, Peter; Schulz, Axel; Seibald, Markus; Soller, Thomas; Chemistry - An Asian Journal; vol. 4; 10; (2009); p. 1588 - 1603;",https://www.reaxys.com/reaxys/secured/hopinto.do?context=C&query=CNR.CNR%3D8876877&database=RX&origin=ReaxysOutput&ln=
,NC(=O)C=O,1737752.0,https://www.reaxys.com/reaxys/secured/hopinto.do?context=S&query=IDE.XRN%3D1737752&database=RX&origin=ReaxysOutput&ln=,(659 of 4000),60939-21-1,oxamic aldehyde; acryl amide; α-ketoacetamide; aminodiketone; formyl amide; α-oxoacetamide; α-oxyacetamide; glyoxylic acid amide; Glyoxylsaeure-amid; oxo-acetamide; glyoxyl amide; glyoxamide,C2H3O2N,C2H3NO2,73.0513,acyclic,,AMANDCZTVNQSNB-UHFFFAOYSA-N,,,,Identification(59); Physical Data(1),20.0,71.0,205 - 207,,,,,,Patent; SANOFI; US4031221; (1977); A;,https://www.reaxys.com/reaxys/secured/hopinto.do?context=C&query=CNR.CNR%3D184630&database=RX&origin=ReaxysOutput&ln=
,OCN=C=O,1901825.0,https://www.reaxys.com/reaxys/secured/hopinto.do?context=S&query=IDE.XRN%3D1901825&database=RX&origin=ReaxysOutput&ln=,(660 of 4000),88906-00-7,Hydroxymethylisocyanat,C2H3NO2,C2H3NO2,73.0513,acyclic,,IIYRBUWJXKXDQY-UHFFFAOYSA-N,,,,Identification(5); Physical Data(1),4.0,1.0,-50,,,,,,"Article; Hoover,F.W. et al.; Journal of Organic Chemistry; vol. 28; (1963); p. 1825 - 1830;",https://www.reaxys.com/reaxys/secured/hopinto.do?context=C&query=CNR.CNR%3D176928&database=RX&origin=ReaxysOutput&ln=
,[2H]C1([2H])CNC1=O,6321929.0,https://www.reaxys.com/reaxys/secured/hopinto.do?context=S&query=IDE.XRN%3D6321929&database=RX&origin=ReaxysOutput&ln=,(661 of 4000),,"2-azetidinone-3,3-d2",C3H3D2NO,C3H5NO,73.0629,heterocyclic,,MNFORVFSTILPAW-DICFDUPASA-N,,,,Identification(7); Physical Data(1); Spectra(2),3.0,2.0,77.5,hexane; CHCl3,,,,,Article; Hanai; Maki; Kuwae; Bulletin of the Chemical Society of Japan; vol. 58; 5; (1985); p. 1367 - 1375;,https://www.reaxys.com/reaxys/secured/hopinto.do?context=C&query=CNR.CNR%3D5802409&database=RX&origin=ReaxysOutput&ln=