Structure: Image,SMILES,Substance Identification: Reaxys Registry Number,Links to Reaxys,Data Count,CAS Registry Number,Chemical Name,Linear Structure Formula,Molecular Formula,Molecular Weight,Type of Substance,Type and Modification,InChI Key,Composition: Comp. Name,Composition: Comp. Conc.,Composition: Comp. Attrib.,Field Availability,Number of Reactions,Number of References,Melting Point: Melting Point [C],Solvent (Melting Point),Location,Comment (Melting Point),Crystallizes With,Amount (Melting Point) [mol],References,Links to Reaxys.1
,CC(O)CN=O,5490417.0,https://www.reaxys.com/reaxys/secured/hopinto.do?context=S&query=IDE.XRN%3D5490417&database=RX&origin=ReaxysOutput&ln=,(1768 of 4000),93682-09-8,,C3H7NO2,C3H7NO2,89.0941,acyclic,,VXXZUXSRPYINJF-UHFFFAOYSA-N,,,,Identification(6); Physical Data(1); Spectra(4),1.0,1.0,81 - 82,,,,,,"Article; Ozaki, Shigeko; Nishiguchi, Susumu; Masui, Masaichiro; Chemical and pharmaceutical bulletin; vol. 32; 7; (1984); p. 2609 - 2616;",https://www.reaxys.com/reaxys/secured/hopinto.do?context=C&query=CNR.CNR%3D5679203&database=RX&origin=ReaxysOutput&ln=
,CC(CO)N=O,5491061.0,https://www.reaxys.com/reaxys/secured/hopinto.do?context=S&query=IDE.XRN%3D5491061&database=RX&origin=ReaxysOutput&ln=,(1769 of 4000),93682-10-1,,C3H7NO2,C3H7NO2,89.0941,acyclic,,NLMBBUAFZMVPMY-UHFFFAOYSA-N,,,,Identification(6); Physical Data(1); Spectra(4),1.0,1.0,104 - 105,,,,,,"Article; Ozaki, Shigeko; Nishiguchi, Susumu; Masui, Masaichiro; Chemical and pharmaceutical bulletin; vol. 32; 7; (1984); p. 2609 - 2616;",https://www.reaxys.com/reaxys/secured/hopinto.do?context=C&query=CNR.CNR%3D5679203&database=RX&origin=ReaxysOutput&ln=
,CC(O)NC=O,8477801.0,https://www.reaxys.com/reaxys/secured/hopinto.do?context=S&query=IDE.XRN%3D8477801&database=RX&origin=ReaxysOutput&ln=,(1770 of 4000),102904-85-8,N-(α-hydroxyethyl)formamide,C3H7NO2,C3H7NO2,89.0941,acyclic,,DTBGILDKBIBTGE-UHFFFAOYSA-N,,,,Identification(17); Physical Data(1); Spectra(1),7.0,18.0,53,,,,,,"Review; Kröner, Michael; Dupuis, Jacques; Winter, Manfred; Advanced Synthesis and Catalysis; vol. 342; 2; (2000); p. 115 - 131;",https://www.reaxys.com/reaxys/secured/hopinto.do?context=C&query=CNR.CNR%3D6221748&database=RX&origin=ReaxysOutput&ln=
,CC#CC#CC#N,1919381.0,https://www.reaxys.com/reaxys/secured/hopinto.do?context=S&query=IDE.XRN%3D1919381&database=RX&origin=ReaxysOutput&ln=,(1771 of 4000),66486-69-9,"2,4-hexadiynenitrile; hexa-2,4-diynenitrile; methylcyanodiacetylene",C6H3N,C6H3N,89.0965,acyclic,,KPEAXUODRYGJCC-UHFFFAOYSA-N,,,,Identification(11); Physical Data(11); Spectra(19),11.0,11.0,92,,supporting information,,,,"Article; Kerisit, Nicolas; Toupet, Loic; Trolez, Yann; Guillemin, Jean-Claude; Chemistry - A European Journal; vol. 19; 52; (2013); p. 17683 - 17686;",https://www.reaxys.com/reaxys/secured/hopinto.do?context=C&query=CNR.CNR%3D62399150&database=RX&origin=ReaxysOutput&ln=
,NCC(=O)NN,635860.0,https://www.reaxys.com/reaxys/secured/hopinto.do?context=S&query=IDE.XRN%3D635860&database=RX&origin=ReaxysOutput&ln=,(1772 of 4000),14379-80-7,glycine hydrazide; Glycin-hydrazid,C2H7N3O,C2H7N3O,89.0971,acyclic,,HAZOZRAPGZDOEM-UHFFFAOYSA-N,,,,Identification(31); Physical Data(6); Spectra(4); Bioactivity(1),47.0,38.0,85 - 87,ethanol,,,,,Article; Mueller; Scheuer; Gerdes andMosebach; Hoppe-Seyler's Zeitschrift fur Physiologische Chemie; vol. 357; 7; (1976); p. 1007 - 1009;,https://www.reaxys.com/reaxys/secured/hopinto.do?context=C&query=CNR.CNR%3D252669&database=RX&origin=ReaxysOutput&ln=
,CN(N)C(N)=O,1742941.0,https://www.reaxys.com/reaxys/secured/hopinto.do?context=S&query=IDE.XRN%3D1742941&database=RX&origin=ReaxysOutput&ln=,(1773 of 4000),22718-48-5,2-methyl semicarbazide; 2-Methylsemicarbazid; 1-amino-1-methylurea; 2-(aminocarbonyl)-2-methylhydrazine,CH3N(NH2)CONH2,C2H7N3O,89.0971,acyclic,,DOORGKNGFZOACY-UHFFFAOYSA-N,,,,Identification(13); Physical Data(16); Spectra(9); Bioactivity(4),75.0,45.0,101 - 102,,supporting information,,,,"Article; Ottersbach, Philipp A.; Schnakenburg, Gregor; Guetschow, Michael; Chemical Communications; vol. 48; 46; (2012); p. 5772 - 5774;",https://www.reaxys.com/reaxys/secured/hopinto.do?context=C&query=CNR.CNR%3D20174128&database=RX&origin=ReaxysOutput&ln=
,CNC(=O)NN,1742970.0,https://www.reaxys.com/reaxys/secured/hopinto.do?context=S&query=IDE.XRN%3D1742970&database=RX&origin=ReaxysOutput&ln=,(1774 of 4000),17696-95-6,4-methylsemicarbazide; 1-amino-3-methylurea; methylaminocarbonylhydrazine,C2H7N3O,C2H7N3O,89.0971,acyclic,,LHYKTQVFLKHQSR-UHFFFAOYSA-N,,,,Identification(13); Physical Data(8); Spectra(3),75.0,50.0,116,,,,,,"Article; Yurzhenko; Turkevich; Dopovidi Akademii Nauk Ukrains'koi RSR, Seriya B: Geologiya, Geofizika, Khimiya ta Biologiya; vol. 30; 1; (1968); p. 76,77,78; Chem.Abstr.; vol. 68; 104642f; (1968);",https://www.reaxys.com/reaxys/secured/hopinto.do?context=C&query=CNR.CNR%3D3990138&database=RX&origin=ReaxysOutput&ln=
,CNNC(N)=O,1743075.0,https://www.reaxys.com/reaxys/secured/hopinto.do?context=S&query=IDE.XRN%3D1743075&database=RX&origin=ReaxysOutput&ln=,(1775 of 4000),22718-41-8,1-Methyl-semicarbazid; 1-methyl-semicarbazide,C2H7N3O,C2H7N3O,89.0971,acyclic,,RKNBYEDXBCUNQB-UHFFFAOYSA-N,,,,Identification(9); Physical Data(5); Spectra(4),6.0,7.0,174 - 175,,supporting information,,,,"Article; Ottersbach, Philipp A.; Schnakenburg, Gregor; Guetschow, Michael; Chemical Communications; vol. 48; 46; (2012); p. 5772 - 5774;",https://www.reaxys.com/reaxys/secured/hopinto.do?context=C&query=CNR.CNR%3D20174128&database=RX&origin=ReaxysOutput&ln=
,CC(NN)=NO,1920644.0,https://www.reaxys.com/reaxys/secured/hopinto.do?context=S&query=IDE.XRN%3D1920644&database=RX&origin=ReaxysOutput&ln=,(1776 of 4000),76002-03-4,Acethydroximsaeure-hydrazid,C2H7N3O,C2H7N3O,89.0971,acyclic,,KMIXWLSAMVQJMS-UHFFFAOYSA-N,,,,Identification(7); Physical Data(3); Spectra(1),5.0,2.0,110,,,Decomposition,,,"Article; Armand, Joseph; Bassinet, Philippe; Journal of Chemical Research, Miniprint; 9; (1980); p. 3853 - 3869;",https://www.reaxys.com/reaxys/secured/hopinto.do?context=C&query=CNR.CNR%3D5940461&database=RX&origin=ReaxysOutput&ln=
,CNN.[H]N=N#N,8774023.0,https://www.reaxys.com/reaxys/secured/hopinto.do?context=S&query=IDE.XRN%3D8774023&database=RX&origin=ReaxysOutput&ln=,(1777 of 4000),,methylhydrazinium azide,CH6N2*HN3,CH6N2*HN3,89.1001,acyclic,,VXFPNKPCFBIBFR-UHFFFAOYSA-N,,,,Identification(6); Physical Data(6); Spectra(6),,1.0,68,,,,,,"Article; Hammerl, Anton; Holl, Gerhard; Huebler, Klaus; Kaiser, Manfred; Klapoetke, Thomas M.; Mayer, Peter; European Journal of Inorganic Chemistry; 3; (2001); p. 755 - 760;",https://www.reaxys.com/reaxys/secured/hopinto.do?context=C&query=CNR.CNR%3D6273439&database=RX&origin=ReaxysOutput&ln=
,[H][Al]([H])[H].CN(C)C,3905678.0,https://www.reaxys.com/reaxys/secured/hopinto.do?context=S&query=IDE.XRN%3D3905678&database=RX&origin=ReaxysOutput&ln=,(1778 of 4000),16842-00-5,trimethylaminealane,C3H9N*AlH3,AlH3*C3H9N,89.1165,acyclic; Coordination compound,,NGMRHZNERZGMEZ-UHFFFAOYSA-N,,,,Identification(8); Physical Data(4),46.0,29.0,75 - 76,,,,,,"Article; Bulychev, B. M.; Belov, V. V.; Yakovleva, N. A.; Semenenko, K. N.; Russian Journal of Inorganic Chemistry; vol. 22; (1977); p. 738 - 740; Russ. J. Inorg. Chem. (Transl. of Zh. Neorg. Khim.); vol. 22; (1977); p. 1355 - 1358; (from Gmelin)",https://www.reaxys.com/reaxys/secured/hopinto.do?context=C&query=CNR.CNR%3D8402620&database=RX&origin=ReaxysOutput&ln=
,[H].[H].[H].[Al].CN(C)C,6287000.0,https://www.reaxys.com/reaxys/secured/hopinto.do?context=S&query=IDE.XRN%3D6287000&database=RX&origin=ReaxysOutput&ln=,(1779 of 4000),,trimethylamin alane; trimethylamino alane; Trimethyl-amin; Verbindung mit Aluminiumhydrid,H3Al*N(CH3)3,AlH3*C3H9N,89.1165,acyclic; Coordination compound,,MOQBQUXFOQRLKL-UHFFFAOYSA-N,,,,Identification(7); Physical Data(4); Spectra(7),53.0,37.0,76,,,nach Sublimation bei 50-60grad/1 Torr.,,,"Article; Wiberg et al.; Zeitschrift fur Anorganische und Allgemeine Chemie; vol. 272; (1953); p. 221,224, 230;",https://www.reaxys.com/reaxys/secured/hopinto.do?context=C&query=CNR.CNR%3D1254737&database=RX&origin=ReaxysOutput&ln=
,CC(C)(N)CO,505979.0,https://www.reaxys.com/reaxys/secured/hopinto.do?context=S&query=IDE.XRN%3D505979&database=RX&origin=ReaxysOutput&ln=,(1782 of 4000),124-68-5,2-Amino-2-methyl-1-propanol; 2-methyl-2-aminopropanol,OHCH2C(CH3)2NH2,C4H11NO,89.1374,acyclic,,CBTVGIZVANVGBH-UHFFFAOYSA-N,,,,Identification(1447); Physical Data(143); Spectra(26); Bioactivity(189),2447.0,3234.0,25 - 26,,,,,,Article; Gabriel; Industrial and Engineering Chemistry; vol. 32; (1940); p. 891;; ; Patent; PURDUE UNIVERSITY SYSTEM; US2139122; (1937); A;,https://www.reaxys.com/reaxys/secured/hopinto.do?context=C&query=CNR.CNR%3D1239263&database=RX&origin=ReaxysOutput&ln=
,CCNCCO,635671.0,https://www.reaxys.com/reaxys/secured/hopinto.do?context=S&query=IDE.XRN%3D635671&database=RX&origin=ReaxysOutput&ln=,(1783 of 4000),110-73-6,2-(Ethylamino)ethanol; N-ethylethanolamine,HNC2H5(CH2CH2OH),C4H11NO,89.1374,acyclic,,MIJDSYMOBYNHOT-UHFFFAOYSA-N,,,,Identification(311); Physical Data(118); Spectra(2); Bioactivity(45),685.0,855.0,157 - 160,,,,,,Patent; SANOFI; US4129562; (1978); A;,https://www.reaxys.com/reaxys/secured/hopinto.do?context=C&query=CNR.CNR%3D7092653&database=RX&origin=ReaxysOutput&ln=
,COCCCN,878144.0,https://www.reaxys.com/reaxys/secured/hopinto.do?context=S&query=IDE.XRN%3D878144&database=RX&origin=ReaxysOutput&ln=,(1784 of 4000),5332-73-0,3-methoxypropylamine,CH3OC3H6NH2,C4H11NO,89.1374,acyclic,,FAXDZWQIWUSWJH-UHFFFAOYSA-N,,,,Identification(189); Physical Data(39); Spectra(16); Bioactivity(59),1180.0,990.0,-75.7,,,,,,Article; Witschonke; Analytical Chemistry; vol. 26; (1954); p. 562;,https://www.reaxys.com/reaxys/secured/hopinto.do?context=C&query=CNR.CNR%3D609866&database=RX&origin=ReaxysOutput&ln=
,CCC(N)CO,1098274.0,https://www.reaxys.com/reaxys/secured/hopinto.do?context=S&query=IDE.XRN%3D1098274&database=RX&origin=ReaxysOutput&ln=,(1785 of 4000),96-20-8; 13054-87-0,2-aminobutanol,OHCH2CH(NH2)CH2CH3,C4H11NO,89.1374,acyclic,,JCBPETKZIGVZRE-UHFFFAOYSA-N,,,,Identification(275); Physical Data(43); Spectra(18); Bioactivity(53),789.0,853.0,-2,,,,,,Article; Gabriel; Industrial and Engineering Chemistry; vol. 32; (1940); p. 891;,https://www.reaxys.com/reaxys/secured/hopinto.do?context=C&query=CNR.CNR%3D1239263&database=RX&origin=ReaxysOutput&ln=
,CN(C)CCO,1209235.0,https://www.reaxys.com/reaxys/secured/hopinto.do?context=S&query=IDE.XRN%3D1209235&database=RX&origin=ReaxysOutput&ln=,(1786 of 4000),108-01-0,"2-(N,N-dimethylamino)ethanol; 2-(dimethylamino)ethanol",HOC2H4N(CH3)2,C4H11NO,89.1374,acyclic,,UEEJHVSXFDXPFK-UHFFFAOYSA-N,,,,Identification(1622); Physical Data(216); Spectra(83); Bioactivity(263),3699.0,4136.0,90 - 91,H2O,,,,,"Article; Runge; Pfeiffer; Chemische Berichte; vol. 90; (1957); p. 1757,1760;",https://www.reaxys.com/reaxys/secured/hopinto.do?context=C&query=CNR.CNR%3D1953245&database=RX&origin=ReaxysOutput&ln=
,[H][C@@](C)(N)[C@]([H])(C)O,1718894.0,https://www.reaxys.com/reaxys/secured/hopinto.do?context=S&query=IDE.XRN%3D1718894&database=RX&origin=ReaxysOutput&ln=,(1787 of 4000),111138-90-0,"L(+)-threo-3-amino-butanol-(2); (2S,3S)-2-amino-3-hydroxybutane",C4H11NO,C4H11NO,89.1374,acyclic,,FERWBXLFSBWTDE-IMJSIDKUSA-N,,,,Identification(6); Physical Data(5),8.0,5.0,7 - 11,,,,,,Article; Dickey; Fickett; Lucas; Journal of the American Chemical Society; vol. 74; (1952); p. 947;,https://www.reaxys.com/reaxys/secured/hopinto.do?context=C&query=CNR.CNR%3D1239341&database=RX&origin=ReaxysOutput&ln=
,[H][C@@](C)(N)[C@@]([H])(C)O,1718895.0,https://www.reaxys.com/reaxys/secured/hopinto.do?context=S&query=IDE.XRN%3D1718895&database=RX&origin=ReaxysOutput&ln=,(1788 of 4000),72174-18-6,"3-(S)-amino-2-(R)-butanol; (2R,3S)-3-aminobutan-2-ol; (+)(2R:3S)-3-amino-butanol-(2)",C4H11NO,C4H11NO,89.1374,acyclic,,FERWBXLFSBWTDE-IUYQGCFVSA-N,,,,Identification(7); Physical Data(8); Spectra(6),20.0,12.0,49 - 50,,,,,,Article; Hernestam; Journal of Heterocyclic Chemistry; vol. 16; (1979); p. 1253;,https://www.reaxys.com/reaxys/secured/hopinto.do?context=C&query=CNR.CNR%3D2995967&database=RX&origin=ReaxysOutput&ln=
,[H][C@](C)(N)[C@@]([H])(C)O,1718896.0,https://www.reaxys.com/reaxys/secured/hopinto.do?context=S&query=IDE.XRN%3D1718896&database=RX&origin=ReaxysOutput&ln=,(1789 of 4000),110716-81-9,"(2R,3R)-3-aminobutan-2-ol",C4H11NO,C4H11NO,89.1374,acyclic,,FERWBXLFSBWTDE-QWWZWVQMSA-N,,,,Identification(9); Physical Data(7); Spectra(2),17.0,10.0,15 - 16,,,,,,Article; Dickey; Fickett; Lucas; Journal of the American Chemical Society; vol. 74; (1952); p. 947;,https://www.reaxys.com/reaxys/secured/hopinto.do?context=C&query=CNR.CNR%3D1239341&database=RX&origin=ReaxysOutput&ln=
,[H][C@](C)(N)[C@]([H])(C)O,1718898.0,https://www.reaxys.com/reaxys/secured/hopinto.do?context=S&query=IDE.XRN%3D1718898&database=RX&origin=ReaxysOutput&ln=,(1791 of 4000),40285-23-2; 40285-24-3; 42549-71-3; 42551-55-3; 44296-83-5; 72174-18-6; 110716-81-9; 111138-90-0,3-amino-2-butanol; (+/-)-erythro-3-amino-butanol-(2),C4H11NO,C4H11NO,89.1374,acyclic,racemate,FERWBXLFSBWTDE-DMTCNVIQSA-N,,,,Identification(12); Physical Data(14); Spectra(5),16.0,16.0,46 - 47,,,,,,"Article; Hoesch,L.; Dreiding,A.S.; Helvetica Chimica Acta; vol. 58; (1975); p. 1995 - 2009;",https://www.reaxys.com/reaxys/secured/hopinto.do?context=C&query=CNR.CNR%3D7620&database=RX&origin=ReaxysOutput&ln=
,CCCCON,1731199.0,https://www.reaxys.com/reaxys/secured/hopinto.do?context=S&query=IDE.XRN%3D1731199&database=RX&origin=ReaxysOutput&ln=,(1792 of 4000),5622-77-5,O-n-butylhydroxylamine; O-butyl-hydroxylamine,C4H11NO,C4H11NO,89.1374,acyclic,,WCVVIGQKJZLJDB-UHFFFAOYSA-N,,,,Identification(22); Physical Data(24); Spectra(12),64.0,62.0,153 - 155,,,,,,"Article; Galons, Herve; Fiet, Jean; Combet-Farnoux, Claude; Miocque, Marcel; Bram, Georges; Molecular Crystals and Liquid Crystals (1969-1991); vol. 161; (1988); p. 521 - 528;",https://www.reaxys.com/reaxys/secured/hopinto.do?context=C&query=CNR.CNR%3D5860044&database=RX&origin=ReaxysOutput&ln=
,CCCCNO,1731264.0,https://www.reaxys.com/reaxys/secured/hopinto.do?context=S&query=IDE.XRN%3D1731264&database=RX&origin=ReaxysOutput&ln=,(1793 of 4000),5080-24-0,N-n-butylhydroxylamine; 1-butylhydroxylamine; butylhydroxyamine; butylhydroxylamine; N-butyl-hydroxylamine; 1-Hydroxylamino-butan,C4H11NO,C4H11NO,89.1374,acyclic,,SWTFBLUIBHXOAH-UHFFFAOYSA-N,,,,Identification(16); Physical Data(5); Spectra(6),39.0,35.0,54,,,,,,"Article; Feuer et al.; Journal of Organic Chemistry; vol. 30; (1965); p. 2880,2881;; ; Article; Feuer; Vincent; Journal of the American Chemical Society; vol. 84; (1962); p. 3771;; ; Article; Hajipour; Mohammadpoor-Baltork; Rahi; Indian Journal of Chemistry - Section B Organic and Medicinal Chemistry; vol. 39; 3; (2000); p. 239 - 242;; ; Article; Hajipour; Mohammadpoor-Baltork; Noroallhi; Indian Journal of Chemistry - Section B Organic and Medicinal Chemistry; vol. 40; 2; (2001); p. 152 - 156;",https://www.reaxys.com/reaxys/secured/hopinto.do?context=C&query=CNR.CNR%3D3826642&database=RX&origin=ReaxysOutput&ln=
,CNCC(C)O,1731272.0,https://www.reaxys.com/reaxys/secured/hopinto.do?context=S&query=IDE.XRN%3D1731272&database=RX&origin=ReaxysOutput&ln=,(1794 of 4000),16667-45-1,1-(methylamino)propan-2-ol; 1-(methylamino)-2-propanol; (+/-)-N-Methyl-1-aminopropan-2-ol; N-methyl-N-(2-hydroxypropyl)amine,C4H11NO,C4H11NO,89.1374,acyclic,,AEKHFLDILSDXBL-UHFFFAOYSA-N,,,,Identification(36); Physical Data(14); Spectra(5),61.0,73.0,17,,,,,,"Article; Minoura et al.; Journal of the American Chemical Society; vol. 81; (1959); p. 4689,4690;",https://www.reaxys.com/reaxys/secured/hopinto.do?context=C&query=CNR.CNR%3D1265127&database=RX&origin=ReaxysOutput&ln=
,CCN(O)CC,1731349.0,https://www.reaxys.com/reaxys/secured/hopinto.do?context=S&query=IDE.XRN%3D1731349&database=RX&origin=ReaxysOutput&ln=,(1795 of 4000),3710-84-7,"N-ethyl-N-hydroxy-ethanamine; N,N-Diethylhydroxylamine",HON(C2H5)2,C4H11NO,89.1374,acyclic,,FVCOIAYSJZGECG-UHFFFAOYSA-N,,,,Identification(158); Physical Data(45); Spectra(26); Bioactivity(19),308.0,341.0,-8 - -6,,,,,,"Article; Dombrowski et al.; Zeitschrift fur Physikalische Chemie (Leipzig); vol. 252; (1973); p. 154,155;",https://www.reaxys.com/reaxys/secured/hopinto.do?context=C&query=CNR.CNR%3D3144279&database=RX&origin=ReaxysOutput&ln=
,CCC(C)NO,1731390.0,https://www.reaxys.com/reaxys/secured/hopinto.do?context=S&query=IDE.XRN%3D1731390&database=RX&origin=ReaxysOutput&ln=,(1796 of 4000),2912-93-8,N-sec-butylhydroxylamine; 2-butylhydroxylamine; N-(but-2-yl)hydroxylamine; N-<1-Methyl-propyl>-hydroxylamin; N-(2-Butyl)hydroxylamin; N-sek.-Butyl-hydroxylamin; N-sec-buytlhydroxylamine; 2-Hydroxylamino-butan,C4H11NO,C4H11NO,89.1374,acyclic,,LHYPXHNPQLMXDH-UHFFFAOYSA-N,,,,Identification(12); Physical Data(6); Spectra(4),9.0,14.0,96 - 97.5,,,,,,"Article; Kandale, Ajit; Patel, Khushboo; Hussein, Waleed M.; Wun, Shun Jie; Zheng, Shan; Tan, Lendl; West, Nicholas P.; Schenk, Gerhard; Guddat, Luke W.; McGeary, Ross P.; Journal of Medicinal Chemistry; vol. 64; 3; (2021); p. 1670 - 1684;",https://www.reaxys.com/reaxys/secured/hopinto.do?context=C&query=CNR.CNR%3D82968868&database=RX&origin=ReaxysOutput&ln=
,NCCCCO,1731411.0,https://www.reaxys.com/reaxys/secured/hopinto.do?context=S&query=IDE.XRN%3D1731411&database=RX&origin=ReaxysOutput&ln=,(1797 of 4000),13325-10-5,4-Aminobutanol,H2NCH2CH2CH2CH2OH,C4H11NO,89.1374,acyclic,,BLFRQYKZFKYQLO-UHFFFAOYSA-N,,,,Identification(396); Physical Data(61); Spectra(20); Bioactivity(78),1206.0,1443.0,16 - 17,,,,,,"Article; Timofeev; Bazanov; Zubritskaya; Russian Journal of Organic Chemistry; vol. 52; 12; (2016); p. 1756 - 1761; Zh. Org. Khim.; vol. 52; 12; (2016); p. 1765 - 1770,6;",https://www.reaxys.com/reaxys/secured/hopinto.do?context=C&query=CNR.CNR%3D70629132&database=RX&origin=ReaxysOutput&ln=
,CC(C)(C)NO,1731503.0,https://www.reaxys.com/reaxys/secured/hopinto.do?context=S&query=IDE.XRN%3D1731503&database=RX&origin=ReaxysOutput&ln=,(1798 of 4000),16649-50-6,N-t-butylhydroxylamine; N-tert-Butylhydroxylamine,(CH3)3CNHOH,C4H11NO,89.1374,acyclic,,XWESXZZECGOXDQ-UHFFFAOYSA-N,,,,Identification(52); Physical Data(15); Spectra(13); Bioactivity(24),446.0,235.0,58 - 59.5,,,,,,"Article; Aue,D.H.; Thomas,D.; Journal of Organic Chemistry; vol. 39; (1974); p. 3855 - 3862;",https://www.reaxys.com/reaxys/secured/hopinto.do?context=C&query=CNR.CNR%3D189780&database=RX&origin=ReaxysOutput&ln=
,CCCC(N)O,1811611.0,https://www.reaxys.com/reaxys/secured/hopinto.do?context=S&query=IDE.XRN%3D1811611&database=RX&origin=ReaxysOutput&ln=,(1799 of 4000),40898-95-1,2-amino-1-butanol; 1-(-)-2-amino-1-butanol,C4H11NO,C4H11NO,89.1374,acyclic,,OZHIYEINSCNALY-UHFFFAOYSA-N,,,,Identification(28); Physical Data(4); Spectra(1),15.0,38.0,20 - 22,,,Crystallization with 3 Mol(s) H2O,,,"Article; Nielsen,A.T. et al.; Journal of Organic Chemistry; vol. 38; (1973); p. 3288 - 3295;",https://www.reaxys.com/reaxys/secured/hopinto.do?context=C&query=CNR.CNR%3D188381&database=RX&origin=ReaxysOutput&ln=
,CNC[C@H](C)O,4173836.0,https://www.reaxys.com/reaxys/secured/hopinto.do?context=S&query=IDE.XRN%3D4173836&database=RX&origin=ReaxysOutput&ln=,(1800 of 4000),70377-76-3,(S)-N-Methyl-2-hydroxypropylamine; (S)-1-(methylamino)propan-2-ol; (2S)-1-(methylamino)propan-2-ol,C4H11NO,C4H11NO,89.1374,acyclic,,AEKHFLDILSDXBL-BYPYZUCNSA-N,,,,Identification(10); Physical Data(2); Spectra(3),13.0,12.0,31.5 - 32,,,Method: distilled sample,,,"Article; Koepke,S.R. et al.; Journal of Organic Chemistry; vol. 44; 15; (1979); p. 2718 - 2722;",https://www.reaxys.com/reaxys/secured/hopinto.do?context=C&query=CNR.CNR%3D195149&database=RX&origin=ReaxysOutput&ln=