Structure: Image,SMILES,Substance Identification: Reaxys Registry Number,Links to Reaxys,Data Count,CAS Registry Number,Chemical Name,Linear Structure Formula,Molecular Formula,Molecular Weight,Type of Substance,Type and Modification,InChI Key,Composition: Comp. Name,Composition: Comp. Conc.,Composition: Comp. Attrib.,Field Availability,Number of Reactions,Number of References,Melting Point: Melting Point [C],Solvent (Melting Point),Location,Comment (Melting Point),Crystallizes With,Amount (Melting Point) [mol],References,Links to Reaxys.1
,[H][C@]1(CO1)[C@]1([H])CO1,79833.0,https://www.reaxys.com/reaxys/secured/hopinto.do?context=S&query=IDE.XRN%3D79833&database=RX&origin=ReaxysOutput&ln=,(1404 of 4000),1464-53-5,"rac-1,2,3,4-diepoxybutane; (+/-)-1,2:3,4-diepoxybutane; 1,3-butadiene diepoxide; (+/-)-Diepoxybutane",C4H6O2,C4H6O2,86.0904,heterocyclic,racemate,ZFIVKAOQEXOYFY-IMJSIDKUSA-N,,,,Identification(15); Physical Data(10); Spectra(3); Bioactivity(11),51.0,33.0,2 - 4,,,,,,"Article; Roberts; Ross; Journal of the Chemical Society; (1952); p. 4288,4295;",https://www.reaxys.com/reaxys/secured/hopinto.do?context=C&query=CNR.CNR%3D980563&database=RX&origin=ReaxysOutput&ln=
,O=C1CCCO1,105248.0,https://www.reaxys.com/reaxys/secured/hopinto.do?context=S&query=IDE.XRN%3D105248&database=RX&origin=ReaxysOutput&ln=,(1405 of 4000),96-48-0,4-butanolide; γ-butyrolactone,OCH2CH2CH2CO,C4H6O2,86.0904,heterocyclic,,YEJRWHAVMIAJKC-UHFFFAOYSA-N,,,,Identification(5275); Physical Data(550); Spectra(199); Bioactivity(421),2100.0,7447.0,-43.73,,,,,,"Article; Mathuni, Tobias; Kim, Jae-Ik; Park, So-Jin; Journal of Chemical and Engineering Data; vol. 56; 1; (2011); p. 89 - 96;",https://www.reaxys.com/reaxys/secured/hopinto.do?context=C&query=CNR.CNR%3D9078430&database=RX&origin=ReaxysOutput&ln=
,COC(=O)C=C,605396.0,https://www.reaxys.com/reaxys/secured/hopinto.do?context=S&query=IDE.XRN%3D605396&database=RX&origin=ReaxysOutput&ln=,(1406 of 4000),292638-85-8,acrylic acid methyl ester; methyl propenoate; methylacrylate,CH3CO2CHCH2,C4H6O2,86.0904,acyclic,,BAPJBEWLBFYGME-UHFFFAOYSA-N,,,,Identification(4982); Physical Data(291); Spectra(135); Bioactivity(958),25524.0,18296.0,-75.16,,,,,,"Article; Gordon; Mikhailov; Russian Journal of Physical Chemistry; vol. 90; 4; (2016); p. 748 - 753; Zh. Fiz. Khim.; vol. 90; 4; (2016); p. 526 - 531,6;",https://www.reaxys.com/reaxys/secured/hopinto.do?context=C&query=CNR.CNR%3D68662478&database=RX&origin=ReaxysOutput&ln=
,CC(=O)C(C)=O,605398.0,https://www.reaxys.com/reaxys/secured/hopinto.do?context=S&query=IDE.XRN%3D605398&database=RX&origin=ReaxysOutput&ln=,(1407 of 4000),431-03-8,"dimethylglyoxal; 2,3-Butanedione; Diacetyl",H3CC(O)C(O)CH3,C4H6O2,86.0904,acyclic; Isotope or isotope containing compound,,QSJXEFYPDANLFS-UHFFFAOYSA-N,,,,Identification(3043); Physical Data(255); Spectra(301); Bioactivity(392),4219.0,6279.0,87 - 88,,,,,,Article; Fedoronko et al.; Collection of Czechoslovak Chemical Communications; vol. 32; (1967); p. 3998;,https://www.reaxys.com/reaxys/secured/hopinto.do?context=C&query=CNR.CNR%3D5232448&database=RX&origin=ReaxysOutput&ln=
,OC(=O)C1CC1,969839.0,https://www.reaxys.com/reaxys/secured/hopinto.do?context=S&query=IDE.XRN%3D969839&database=RX&origin=ReaxysOutput&ln=,(1408 of 4000),1759-53-1,Cyclopropylcarboxylic acid; cyclopropanecarboxylic acid,(C3H5)COOH,C4H6O2,86.0904,isocyclic,,YMGUBTXCNDTFJI-UHFFFAOYSA-N,,,,Identification(470); Physical Data(169); Spectra(35); Bioactivity(111),1377.0,1525.0,16.5 - 17,,,,,,"Article; Subbotin et al.; Organic Magnetic Resonance; vol. 4; (1972); p. 53,54,56;",https://www.reaxys.com/reaxys/secured/hopinto.do?context=C&query=CNR.CNR%3D4120247&database=RX&origin=ReaxysOutput&ln=
,OCC#CCO,1071237.0,https://www.reaxys.com/reaxys/secured/hopinto.do?context=S&query=IDE.XRN%3D1071237&database=RX&origin=ReaxysOutput&ln=,(1409 of 4000),110-65-6,"1,4-dihydroxybut-2-yne; 2-Butyne-1,4-diol",OHCH2CCCH2OH,C4H6O2,86.0904,acyclic,,DLDJFQGPPSQZKI-UHFFFAOYSA-N,,,,Identification(453); Physical Data(67); Spectra(16); Bioactivity(79),1213.0,1538.0,53,,Page/Page column 17,,,,Patent; ALBEMARLE CORP; WHITE (inventors); ANGEL L; ANGLELL; MACK (inventors); WO2014/179688; (2014); A1;,https://www.reaxys.com/reaxys/secured/hopinto.do?context=C&query=CNR.CNR%3D64137238&database=RX&origin=ReaxysOutput&ln=
,CC(=O)CC=O,1071310.0,https://www.reaxys.com/reaxys/secured/hopinto.do?context=S&query=IDE.XRN%3D1071310&database=RX&origin=ReaxysOutput&ln=,(1410 of 4000),625-34-3,3-oxobutyraldehyde,CH3COCH2CHO,C4H6O2,86.0904,acyclic,,PKQIDSVLSKFZQC-UHFFFAOYSA-N,,,,Identification(113); Physical Data(22); Spectra(26),166.0,202.0,-40,,,,,,"Article; Dahm et al.; vol. 12; (1958); p. 19,21;",https://www.reaxys.com/reaxys/secured/hopinto.do?context=C&query=CNR.CNR%3D1435302&database=RX&origin=ReaxysOutput&ln=
,CC=CC(O)=O,1098434.0,https://www.reaxys.com/reaxys/secured/hopinto.do?context=S&query=IDE.XRN%3D1098434&database=RX&origin=ReaxysOutput&ln=,(1411 of 4000),3724-65-0,2-butenoic acid; crotonic acid; but-2-enoic acid; 3-methylacrylic acid; butenoic acid; vinyl acetic acid,H3CCHCHC(O)OH,C4H6O2,86.0904,acyclic,,LDHQCZJRKDOVOX-UHFFFAOYSA-N,,,,Identification(360); Physical Data(32); Spectra(39); Bioactivity(76),829.0,1116.0,72,water monomer,,,,,"Article; Andreev, P. V.; Gushchin, A. V.; Maleeva, A. I.; Somov, N. V.; Russian Journal of General Chemistry; vol. 92; 1; (2022); p. 85 - 94; Zh. Obshch. Khim.; vol. 92; 1; (2022); p. 128 - 139;",https://www.reaxys.com/reaxys/secured/hopinto.do?context=C&query=CNR.CNR%3D115726055&database=RX&origin=ReaxysOutput&ln=
,CC(=O)OC=C,1209327.0,https://www.reaxys.com/reaxys/secured/hopinto.do?context=S&query=IDE.XRN%3D1209327&database=RX&origin=ReaxysOutput&ln=,(1412 of 4000),108-05-4,vinyl acetate,CH3CO2CHCH2,C4H6O2,86.0904,acyclic,,XTXRWKRVRITETP-UHFFFAOYSA-N,,,,Identification(5990); Physical Data(354); Spectra(112); Bioactivity(591),10296.0,11360.0,-93,,,,,,Patent; CELANESE CORP; US2006/106246; (2006); A1;,https://www.reaxys.com/reaxys/secured/hopinto.do?context=C&query=CNR.CNR%3D7168310&database=RX&origin=ReaxysOutput&ln=
,OC1OCC=C1,1560600.0,https://www.reaxys.com/reaxys/secured/hopinto.do?context=S&query=IDE.XRN%3D1560600&database=RX&origin=ReaxysOutput&ln=,(1413 of 4000),34734-32-2,"4-hydroxy-but-2c-enal cyclohemiacetal; 2,5-dihydro-furan-2-ol",C4H6O2,C4H6O2,86.0904,acyclic,,KEXGMIUVXTZMBV-UHFFFAOYSA-N,,,,Identification(6); Physical Data(1),3.0,4.0,57 - 58,,,,,,Patent; BASF SE; DE2111119; (1971); A1; Chem.Abstr.; vol. 77; 151883; (1972); Chem.Abstr.; vol. 77; 151883; (1972);,https://www.reaxys.com/reaxys/secured/hopinto.do?context=C&query=CNR.CNR%3D3916591&database=RX&origin=ReaxysOutput&ln=
,CC(=CO)C=O,1698777.0,https://www.reaxys.com/reaxys/secured/hopinto.do?context=S&query=IDE.XRN%3D1698777&database=RX&origin=ReaxysOutput&ln=,(1414 of 4000),57325-58-3,methylmalonaldehyde enol tautomer; 3-hydroxy-2-methyl-propenal; 3-hydroxy-2-methyl-acrylaldehyde,C4H6O2,C4H6O2,86.0904,acyclic,,GJYMRMWAVJYYEK-UHFFFAOYSA-N,,,,Identification(7); Physical Data(2); Spectra(3),9.0,5.0,89,,,,,,"Article; Nair,V.; Vietti,D.E.; Cooper,C.S.; Journal of the American Chemical Society; vol. 103; (1981); p. 3030;",https://www.reaxys.com/reaxys/secured/hopinto.do?context=C&query=CNR.CNR%3D2375317&database=RX&origin=ReaxysOutput&ln=
,OC(=O)CC=C,1699159.0,https://www.reaxys.com/reaxys/secured/hopinto.do?context=S&query=IDE.XRN%3D1699159&database=RX&origin=ReaxysOutput&ln=,(1415 of 4000),625-38-7,but-3-enoic acid; Vinylacetic acid,H2CCHCH2COOH,C4H6O2,86.0904,acyclic,,PVEOYINWKBTPIZ-UHFFFAOYSA-N,,,,Identification(300); Physical Data(96); Spectra(43); Bioactivity(82),1316.0,1126.0,-35,,,,,,Article; Linstead; Noble; Boorman; Journal of the Chemical Society; (1933); p. 560;,https://www.reaxys.com/reaxys/secured/hopinto.do?context=C&query=CNR.CNR%3D1159575&database=RX&origin=ReaxysOutput&ln=
,CC(=C)C(O)=O,1719937.0,https://www.reaxys.com/reaxys/secured/hopinto.do?context=S&query=IDE.XRN%3D1719937&database=RX&origin=ReaxysOutput&ln=,(1416 of 4000),79-41-4,Methacrylic acid; 2-methylpropenoic acid; poly(methacrylic acid),HO2CC(CH3)CH2,C4H6O2,86.0904,acyclic,,CERQOIWHTDAKMF-UHFFFAOYSA-N,,,,Identification(8563); Physical Data(260); Spectra(92); Bioactivity(608),3088.0,10980.0,16,,,,,,Article; Snchez-Leija; Pojman; Luna-Brcenas; Mota-Morales; Journal of Materials Chemistry B; vol. 2; 43; (2014); p. 7495 - 7501;,https://www.reaxys.com/reaxys/secured/hopinto.do?context=C&query=CNR.CNR%3D64868761&database=RX&origin=ReaxysOutput&ln=
,C\C=C/C(O)=O,1719942.0,https://www.reaxys.com/reaxys/secured/hopinto.do?context=S&query=IDE.XRN%3D1719942&database=RX&origin=ReaxysOutput&ln=,(1417 of 4000),503-64-0,(Z)-but-2-enoic acid; cis-Crotonic acid; (Z)-2-butenoic acid; (Z)-crotonic acid; perisocrotonic acid,C4H6O2,C4H6O2,86.0904,acyclic,,LDHQCZJRKDOVOX-IHWYPQMZSA-N,,,,Identification(60); Physical Data(64); Spectra(37); Bioactivity(24),144.0,208.0,15.2 - 16,,,,,,"Article; Bogat-skii, A. V.; Galantina, A. I.; Derkach, L. G.; Taubert D.; Journal of Organic Chemistry USSR (English Translation); vol. 17; 11; (1981); p. 2072 - 2075; Zhurnal Organicheskoi Khimii; vol. 17; 11; (1981); p. 2320 - 2323;",https://www.reaxys.com/reaxys/secured/hopinto.do?context=C&query=CNR.CNR%3D5634694&database=RX&origin=ReaxysOutput&ln=
,C\C=C\C(O)=O,1719943.0,https://www.reaxys.com/reaxys/secured/hopinto.do?context=S&query=IDE.XRN%3D1719943&database=RX&origin=ReaxysOutput&ln=,(1418 of 4000),107-93-7,(E)-but-2-enoic acid,CH3C2H2COOH,C4H6O2,86.0904,acyclic,,LDHQCZJRKDOVOX-NSCUHMNNSA-N,,,,Identification(1804); Physical Data(135); Spectra(82); Bioactivity(209),1450.0,3148.0,72,hexane,,,,,"Article; Gembus, Vincent; Karmazin, Lydia; Uguen, Daniel; Zoller, Thomas; Bulletin of the Chemical Society of Japan; vol. 92; 2; (2019); p. 359 - 380;",https://www.reaxys.com/reaxys/secured/hopinto.do?context=C&query=CNR.CNR%3D76031990&database=RX&origin=ReaxysOutput&ln=
,O=CCCC=O,1735656.0,https://www.reaxys.com/reaxys/secured/hopinto.do?context=S&query=IDE.XRN%3D1735656&database=RX&origin=ReaxysOutput&ln=,(1419 of 4000),638-37-9,butanedial; succinaldehyde,OHCCH2CH2CHO,C4H6O2,86.0904,acyclic,,PCSMJKASWLYICJ-UHFFFAOYSA-N,,,,Identification(426); Physical Data(55); Spectra(28); Bioactivity(36),785.0,675.0,65,,,siedet schliesslich unter Uebergang in die monomolekulare Form bei 169grad (Glasige Form des Succindialdehyds).,,,"Article; Harries; Chemische Berichte; vol. 35; (1902); p. 1179,1181; Justus Liebigs Annalen der Chemie; vol. 330; (1904); p. 218 Anm.;; ; Article; Harries; Hohenemser; Chemische Berichte; vol. 41; (1908); p. 255 Anm.4.;",https://www.reaxys.com/reaxys/secured/hopinto.do?context=C&query=CNR.CNR%3D1301906&database=RX&origin=ReaxysOutput&ln=
,CC(C=O)C=O,1737840.0,https://www.reaxys.com/reaxys/secured/hopinto.do?context=S&query=IDE.XRN%3D1737840&database=RX&origin=ReaxysOutput&ln=,(1420 of 4000),16002-19-0,"2-methyl-1,3-propanedialdehyde; methylmalonaldehyde; 3-Hydroxy-2-methyl-acrylaldehyd",C4H6O2,C4H6O2,86.0904,acyclic,,VXYSFSCCSQAYJV-UHFFFAOYSA-N,,,,Identification(33); Physical Data(7),16.0,39.0,87 - 89,benzene,,,,,"Article; Janowskaja; Kutscherow; Bulletin of the Academy of Sciences of the USSR Division of Chemical Science; (1962); p. 616; Izvestiya Akademii Nauk SSSR, Seriya Khimicheskaya; (1962); p. 667;",https://www.reaxys.com/reaxys/secured/hopinto.do?context=C&query=CNR.CNR%3D3857084&database=RX&origin=ReaxysOutput&ln=
,OCC(O)C#C,1739132.0,https://www.reaxys.com/reaxys/secured/hopinto.do?context=S&query=IDE.XRN%3D1739132&database=RX&origin=ReaxysOutput&ln=,(1421 of 4000),616-28-4,"but-3-yne-1,2-diol",C4H6O2,C4H6O2,86.0904,acyclic,,GJMTYVRMTSLDDV-UHFFFAOYSA-N,,,,Identification(17); Physical Data(12); Spectra(3); Bioactivity(3),59.0,23.0,39 - 40,,,,,,Article; Veliev; Sadygov; Alimardanov; Shatirova; Russian Journal of Organic Chemistry; vol. 43; 11; (2007); p. 1604 - 1611;,https://www.reaxys.com/reaxys/secured/hopinto.do?context=C&query=CNR.CNR%3D7172780&database=RX&origin=ReaxysOutput&ln=
,COC=CC=O,1901284.0,https://www.reaxys.com/reaxys/secured/hopinto.do?context=S&query=IDE.XRN%3D1901284&database=RX&origin=ReaxysOutput&ln=,(1422 of 4000),4652-35-1,3-methoxyacrolein; 3-methoxy-propenal; 3-methoxyacrylaldehyde,C4H6O2,C4H6O2,86.0904,acyclic,,XJQSLJZYZFSHAI-UHFFFAOYSA-N,,,,Identification(10); Physical Data(13); Spectra(2),13.0,20.0,14 - 15,,,,,,"Article; Klimko,V.T. et al.; Journal of general chemistry of the USSR; vol. 32; (1962); p. 2913 - 2918; Zhurnal Obshchei Khimii; vol. 32; (1962); p. 2961 - 2966;; ; Article; Skoldinov,A.P. et al.; Journal of Organic Chemistry USSR (English Translation); vol. 6; (1970); p. 421 - 426; Zhurnal Organicheskoi Khimii; vol. 6; (1970); p. 422 - 428;; ; Article; Klimko et al.; Doklady Chemistry; vol. 146; (1962); p. 884; Doklady Akademii Nauk SSSR; vol. 146; (1962); p. 1084;",https://www.reaxys.com/reaxys/secured/hopinto.do?context=C&query=CNR.CNR%3D261851&database=RX&origin=ReaxysOutput&ln=
,COC#COC,3080153.0,https://www.reaxys.com/reaxys/secured/hopinto.do?context=S&query=IDE.XRN%3D3080153&database=RX&origin=ReaxysOutput&ln=,(1423 of 4000),43084-21-5,polymeres Dimethoxyacetylen; Dimethoxyacetylen,C4H6O2,C4H6O2,86.0904,acyclic,,YVLFBVAMOOHWGR-UHFFFAOYSA-N,,,,Identification(7); Physical Data(2); Spectra(2),2.0,4.0,210 - 250,,,,,,"Article; O'Connor,B.R.; Journal of Organic Chemistry; vol. 33; (1968); p. 1991 - 1995;",https://www.reaxys.com/reaxys/secured/hopinto.do?context=C&query=CNR.CNR%3D182693&database=RX&origin=ReaxysOutput&ln=
,O[C@H]1C=C[C@H]1O,3601109.0,https://www.reaxys.com/reaxys/secured/hopinto.do?context=S&query=IDE.XRN%3D3601109&database=RX&origin=ReaxysOutput&ln=,(1424 of 4000),60090-87-1,"cis-3,4-dihydroxycyclobutene",C4H6O2,C4H6O2,86.0904,isocyclic,,QCHAHMKQNICNLC-ZXZARUISSA-N,,,,Identification(11); Physical Data(4); Spectra(3),17.0,8.0,110,,,,,,"Article; de Micheli,C. et al.; Journal of the Chemical Society. Chemical communications; (1976); p. 246 - 247;",https://www.reaxys.com/reaxys/secured/hopinto.do?context=C&query=CNR.CNR%3D152301&database=RX&origin=ReaxysOutput&ln=
,OC[C@@H](O)C#C,4304688.0,https://www.reaxys.com/reaxys/secured/hopinto.do?context=S&query=IDE.XRN%3D4304688&database=RX&origin=ReaxysOutput&ln=,(1425 of 4000),131905-86-7,"(S)-but-3-yne-1,2-diol; (S)-3-butyne-1,2-diol",C4H6O2,C4H6O2,86.0904,acyclic,,GJMTYVRMTSLDDV-BYPYZUCNSA-N,,,,Identification(11); Physical Data(8); Spectra(10),18.0,12.0,37 - 39,hexane; ethyl acetate,supporting information,,,,"Article; Ralston, Kevin J.; Ramstadius, H. Clinton; Brewster, Richard C.; Niblock, Helen S.; Hulme, Alison N.; Angewandte Chemie - International Edition; vol. 54; 24; (2015); p. 7086 - 7090; Angew. Chem.; vol. 127; 24; (2015); p. 7192 - 7196,5;",https://www.reaxys.com/reaxys/secured/hopinto.do?context=C&query=CNR.CNR%3D66321039&database=RX&origin=ReaxysOutput&ln=
,[H][C@@]1(CO1)[C@@]1([H])CO1,4349390.0,https://www.reaxys.com/reaxys/secured/hopinto.do?context=S&query=IDE.XRN%3D4349390&database=RX&origin=ReaxysOutput&ln=,(1427 of 4000),564-00-1; 1464-53-5; 30031-64-2; 34897-03-5; 298-18-0; 30419-67-1,"(R,R)-(-)-diepoxybutane; (S,S)-1,2:3,4-diepoxybutane; 2R,3R-1,2,3,4-diepoxybutane; (R,R)-butane-1,2:3,4-bisoxide; L-1,2:3,4-diepoxybutane; D(-)-1,2:3,4-Dioxido-butan; (R,R)-butadiene diepoxide; 1,3-butadiene bisepoxide; (2R,2'R)-2,2'-bioxirane; 2,2′-bioxirane; (R,R)-tetrahydro-[2,2']bioxirenyl; D-1,2;3,4-dianhydro-threitol; (R,R)-1,2,3,4-diepoxybutane; D,L-diepoxybutane; (R,R)-DEB",C4H6O2,C4H6O2,86.0904,heterocyclic,,ZFIVKAOQEXOYFY-QWWZWVQMSA-N,,,,Identification(18); Physical Data(51); Spectra(6); Bioactivity(2),26.0,19.0,22 - 23,,,,,,Article; Daugey; De Rycke; Brotin; Buffeteau; Chirality; vol. 30; 4; (2018); p. 342 - 350;,https://www.reaxys.com/reaxys/secured/hopinto.do?context=C&query=CNR.CNR%3D72952100&database=RX&origin=ReaxysOutput&ln=
,C1CC=COO1,13814994.0,https://www.reaxys.com/reaxys/secured/hopinto.do?context=S&query=IDE.XRN%3D13814994&database=RX&origin=ReaxysOutput&ln=,(1428 of 4000),,"1,4-dihydrodioxin",C4H6O2,C4H6O2,86.0904,,,OKPBTVORLCHBJF-UHFFFAOYSA-N,,,,Identification(8); Physical Data(2),1.0,3.0,119 - 122,,,,,,Patent; UNIVERSITY SYSTEM OF OHIO; US6018058; (2000); A;,https://www.reaxys.com/reaxys/secured/hopinto.do?context=C&query=CNR.CNR%3D142538&database=RX&origin=ReaxysOutput&ln=
,NC1=NOCC1,105213.0,https://www.reaxys.com/reaxys/secured/hopinto.do?context=S&query=IDE.XRN%3D105213&database=RX&origin=ReaxysOutput&ln=,(1429 of 4000),41832-92-2,"3-Amino-2-isoxazoline; 4,5-dihydro-isoxazol-3-ylamine",C3H6N2O,C3H6N2O,86.0934,heterocyclic,,XPZOKPQZEPSMFC-UHFFFAOYSA-N,,,,Identification(10); Physical Data(2); Spectra(3),6.0,5.0,100 - 101,,,,,,"Article; Olive,J.-L. et al.; Bulletin de la Societe Chimique de France; (1973); p. 1138 - 1144;",https://www.reaxys.com/reaxys/secured/hopinto.do?context=C&query=CNR.CNR%3D121849&database=RX&origin=ReaxysOutput&ln=
,NC1=NCCO1,105332.0,https://www.reaxys.com/reaxys/secured/hopinto.do?context=S&query=IDE.XRN%3D105332&database=RX&origin=ReaxysOutput&ln=,(1430 of 4000),24665-93-8,"4,5-dihydro-oxazol-2-ylamine; 2-Amino-2-oxazolin",C3H6N2O,C3H6N2O,86.0934,heterocyclic,,YAXGBZDYGZBRBQ-UHFFFAOYSA-N,,,,Identification(28); Physical Data(4); Spectra(1); Bioactivity(3),33.0,42.0,70 - 72,ethyl acetate,,,,,"Article; Kampe,K.-D.; Justus Liebigs Annalen der Chemie; (1974); p. 593 - 607;",https://www.reaxys.com/reaxys/secured/hopinto.do?context=C&query=CNR.CNR%3D75837&database=RX&origin=ReaxysOutput&ln=
,O=C1CNCN1,106247.0,https://www.reaxys.com/reaxys/secured/hopinto.do?context=S&query=IDE.XRN%3D106247&database=RX&origin=ReaxysOutput&ln=,(1431 of 4000),1704-79-6,4-imidazolidinone; imidazolidin-4-one,C3H6N2O,C3H6N2O,86.0934,heterocyclic,,GVONPBONFIJAHJ-UHFFFAOYSA-N,,,,Identification(66); Physical Data(1); Spectra(5); Bioactivity(6),16.0,71.0,64 - 67,,,,,,"Article; Pfeiffer, Ugo; Riccaboni, Maria Teresa; Erba, Roberto; Pinza, Mario; Liebigs Annalen der Chemie; (1988); p. 993 - 996;",https://www.reaxys.com/reaxys/secured/hopinto.do?context=C&query=CNR.CNR%3D5733208&database=RX&origin=ReaxysOutput&ln=
,O=C1NCCN1,106252.0,https://www.reaxys.com/reaxys/secured/hopinto.do?context=S&query=IDE.XRN%3D106252&database=RX&origin=ReaxysOutput&ln=,(1432 of 4000),120-93-4,imidazolidone; 2-imidazolidone; ethyleneurea,(C3H6N2)O,C3H6N2O,86.0934,heterocyclic,,YAMHXTCMCPHKLN-UHFFFAOYSA-N,,,,Identification(549); Physical Data(140); Spectra(67); Bioactivity(59),750.0,997.0,130 - 132,,,,,,"Article; Liu, Jianshe; Xie, Yaqiang; Ye, Liyi; Yan, Huidong; Tu, Song; Organic Preparations and Procedures International; vol. 46; 5; (2014); p. 453 - 456;",https://www.reaxys.com/reaxys/secured/hopinto.do?context=C&query=CNR.CNR%3D67325668&database=RX&origin=ReaxysOutput&ln=
,O=NN1CCC1,106316.0,https://www.reaxys.com/reaxys/secured/hopinto.do?context=S&query=IDE.XRN%3D106316&database=RX&origin=ReaxysOutput&ln=,(1433 of 4000),15216-10-1,N-nitrosoazetidine; N-Nitroso-azetidin,C3H6N2O,C3H6N2O,86.0934,heterocyclic,,SNKTZBNDUVWOAZ-UHFFFAOYSA-N,,,,Identification(13); Physical Data(7); Spectra(7); Bioactivity(1),6.0,15.0,104 - 106,,,,,,Article; Nagasawa; Fraser; Yuzon; Journal of medicinal chemistry; vol. 16; 5; (1973); p. 583 - 585;,https://www.reaxys.com/reaxys/secured/hopinto.do?context=C&query=CNR.CNR%3D2500300&database=RX&origin=ReaxysOutput&ln=
,NC(=O)N1CC1,106940.0,https://www.reaxys.com/reaxys/secured/hopinto.do?context=S&query=IDE.XRN%3D106940&database=RX&origin=ReaxysOutput&ln=,(1434 of 4000),3715-65-9,aziridine-1-carboxamide; aziridine-1-carboxylic acid amide; Aziridin-1-carbonsaeure-amid,C3H6N2O,C3H6N2O,86.0934,heterocyclic,,FFBZKUHRIXKOSY-UHFFFAOYSA-N,,,,Identification(6); Physical Data(1),2.0,3.0,106,acetone,,<unter Polymerisation>.,,,"Article; Bestian; Justus Liebigs Annalen der Chemie; vol. 566; (1950); p. 210,231;",https://www.reaxys.com/reaxys/secured/hopinto.do?context=C&query=CNR.CNR%3D626958&database=RX&origin=ReaxysOutput&ln=