Structure: Image,SMILES,Substance Identification: Reaxys Registry Number,Links to Reaxys,Data Count,CAS Registry Number,Chemical Name,Linear Structure Formula,Molecular Formula,Molecular Weight,Type of Substance,Type and Modification,InChI Key,Composition: Comp. Name,Composition: Comp. Conc.,Composition: Comp. Attrib.,Field Availability,Number of Reactions,Number of References,Melting Point: Melting Point [C],Solvent (Melting Point),Location,Comment (Melting Point),Crystallizes With,Amount (Melting Point) [mol],References,Links to Reaxys.1
,[Na+].[H]O[H].[H][B-]([H])([H])[H],16497834.0,https://www.reaxys.com/reaxys/secured/hopinto.do?context=S&query=IDE.XRN%3D16497834&database=RX&origin=ReaxysOutput&ln=,(695 of 4000),,sodium borohydride dihydrate,Na(1+)*BH4(1-)*2H2O = NaBH4*2H2O,BH4*2H2O*Na,73.8631,Coordination compound,,VFHIYARYLDAPAZ-UHFFFAOYSA-N,,,,Identification(7); Physical Data(22); Spectra(6),8.0,25.0,37,,,with decomposition,,,"Article; Gmelin Handbuch der Anorganischen Chemie; vol. Na: SVol.3; 3.6.2, page 1223 - 1233;; ; Report; Neal, H. R.; Beatty, H. A.; PB 106606, LTD 44-20 (1944) 2;; ; Report; Neal, H. R.; Beatty, H. A.; PB 106606, LTD 44-20 (1944) 5; (from Gmelin)",https://www.reaxys.com/reaxys/secured/hopinto.do?context=C&query=CNR.CNR%3D7470144&database=RX&origin=ReaxysOutput&ln=
,CB(C)P,1730820.0,https://www.reaxys.com/reaxys/secured/hopinto.do?context=S&query=IDE.XRN%3D1730820&database=RX&origin=ReaxysOutput&ln=,(696 of 4000),69774-70-5,dimethylboranyl-phosphine; Dimethyl-phosphino-boran; Dimethylboryl-phosphin,B(CH3)2PH2,C2H8BP,73.8703,acyclic,,FVTYUITVBGLZES-UHFFFAOYSA-N,,,,Identification(5); Physical Data(1),3.0,4.0,45 - 50,,,,,,"Article; Burg; Wagner; Journal of the American Chemical Society; vol. 75; (1953); p. 3872,3873;",https://www.reaxys.com/reaxys/secured/hopinto.do?context=C&query=CNR.CNR%3D1276031&database=RX&origin=ReaxysOutput&ln=
,[H]B([H])P(C)C,2408241.0,https://www.reaxys.com/reaxys/secured/hopinto.do?context=S&query=IDE.XRN%3D2408241&database=RX&origin=ReaxysOutput&ln=,(697 of 4000),43625-73-6,Dimethyl-phosphinoborin,{(CH3)2PBH2},C2H8BP,73.8703,acyclic,,RFUDRRBIIIIQRZ-UHFFFAOYSA-N,,,,Identification(9); Physical Data(5); Spectra(1),8.0,11.0,87 - 88,methanol,,,,,"Article; Biddulph,R.H. et al.; Journal of the Chemical Society; (1961); p. 1822 - 1824;",https://www.reaxys.com/reaxys/secured/hopinto.do?context=C&query=CNR.CNR%3D160114&database=RX&origin=ReaxysOutput&ln=
,[H]B(OC)OC,1697126.0,https://www.reaxys.com/reaxys/secured/hopinto.do?context=S&query=IDE.XRN%3D1697126&database=RX&origin=ReaxysOutput&ln=,(698 of 4000),4542-61-4,dimethyl boronate; Dimethoxy-boran,BH(OCH3)2,C2H7BO2,73.8874,acyclic,,VAWRKITUPUFMHV-UHFFFAOYSA-N,,,,Identification(17); Physical Data(12); Spectra(9),43.0,77.0,-131 - -130.2,,,,,,Article; Burg; Schlesinger; Journal of the American Chemical Society; vol. 55; (1933); p. 4022 Anm.;,https://www.reaxys.com/reaxys/secured/hopinto.do?context=C&query=CNR.CNR%3D1351503&database=RX&origin=ReaxysOutput&ln=
,CCB(O)O,1731546.0,https://www.reaxys.com/reaxys/secured/hopinto.do?context=S&query=IDE.XRN%3D1731546&database=RX&origin=ReaxysOutput&ln=,(699 of 4000),4433-63-0,Ethyl boronic acid,CH3CH2B(OH)2,C2H7BO2,73.8874,acyclic,,PAVZHTXVORCEHP-UHFFFAOYSA-N,,,,Identification(86); Physical Data(8); Bioactivity(17),313.0,300.0,161 - 162,,,,,,"Article; Laurent,J.-P.; Comptes Rendus Hebdomadaires des Seances de l'Academie des Sciences; vol. 253; (1961); p. 1812 - 1814;",https://www.reaxys.com/reaxys/secured/hopinto.do?context=C&query=CNR.CNR%3D137387&database=RX&origin=ReaxysOutput&ln=
,OC(=O)C=O,741891.0,https://www.reaxys.com/reaxys/secured/hopinto.do?context=S&query=IDE.XRN%3D741891&database=RX&origin=ReaxysOutput&ln=,(702 of 4000),298-12-4,Glyoxilic acid; Glyoxylic acid,COHCO2H,C2H2O3,74.0361,acyclic,,HHLFWLYXYJOTON-UHFFFAOYSA-N,,,,Identification(2173); Physical Data(82); Spectra(64); Bioactivity(266),4616.0,4470.0,52.5,,Paragraph 0076,,,,Patent; PANZHIHUA UNIVERSITY; CN106431885; (2017); A;,https://www.reaxys.com/reaxys/secured/hopinto.do?context=C&query=CNR.CNR%3D70868582&database=RX&origin=ReaxysOutput&ln=
,[2H]C1([2H])C[15NH]C1=O,6387503.0,https://www.reaxys.com/reaxys/secured/hopinto.do?context=S&query=IDE.XRN%3D6387503&database=RX&origin=ReaxysOutput&ln=,(703 of 4000),,"2-azetidinone-3,3-d2-(15)N",C3H3D2(15)NO,C3H5NO,74.0562,heterocyclic,,MNFORVFSTILPAW-CTMCCNGQSA-N,,,,Identification(6); Physical Data(1); Spectra(2),2.0,1.0,77.5,hexane; CHCl3,,,,,Article; Hanai; Maki; Kuwae; Bulletin of the Chemical Society of Japan; vol. 58; 5; (1985); p. 1367 - 1375;,https://www.reaxys.com/reaxys/secured/hopinto.do?context=C&query=CNR.CNR%3D5802409&database=RX&origin=ReaxysOutput&ln=
,C1COCO1,102453.0,https://www.reaxys.com/reaxys/secured/hopinto.do?context=S&query=IDE.XRN%3D102453&database=RX&origin=ReaxysOutput&ln=,(704 of 4000),646-06-0,"1,3-DIOXOLANE; dioxolane",O2C3H6,C3H6O2,74.0794,heterocyclic,,WNXJIVFYUVYPPR-UHFFFAOYSA-N,,,,Identification(3289); Physical Data(579); Spectra(81); Bioactivity(198),1008.0,3896.0,-93,,,,,,"Article; Rosso; Carbonnel; Comptes Rendus des Seances de l'Academie des Sciences, Serie C: Sciences Chimiques; vol. 273; (1971); p. 1397;",https://www.reaxys.com/reaxys/secured/hopinto.do?context=C&query=CNR.CNR%3D3652477&database=RX&origin=ReaxysOutput&ln=
,OCC1CO1,383562.0,https://www.reaxys.com/reaxys/secured/hopinto.do?context=S&query=IDE.XRN%3D383562&database=RX&origin=ReaxysOutput&ln=,(705 of 4000),556-52-5,oxiranyl-methanol,HOCH2C2H3O,C3H6O2,74.0794,heterocyclic,,CTKINSOISVBQLD-UHFFFAOYSA-N,,,,Identification(2019); Physical Data(75); Spectra(57); Bioactivity(188),1530.0,3234.0,164 - 166,,Paragraph 0089,,,,Patent; KAWASAKI KASEI CHEMICALS LTD.; JP2019/31471; (2019); A;,https://www.reaxys.com/reaxys/secured/hopinto.do?context=C&query=CNR.CNR%3D76436958&database=RX&origin=ReaxysOutput&ln=
,CCC(O)=O,506071.0,https://www.reaxys.com/reaxys/secured/hopinto.do?context=S&query=IDE.XRN%3D506071&database=RX&origin=ReaxysOutput&ln=,(706 of 4000),802294-64-0,propionic acid; n-Propanoic acid; propanoic Acid,HCOOC2H5,C3H6O2,74.0794,acyclic,,XBDQKXXYIPTUBI-UHFFFAOYSA-N,,,,Identification(1915); Physical Data(1944); Spectra(244); Bioactivity(678),6585.0,8990.0,-21,,Page/Page column 21,,,,Patent; TOYOTA MOTOR CORPORATION; AISIN CORPORATION; JP2015/71702; (2015); A;,https://www.reaxys.com/reaxys/secured/hopinto.do?context=C&query=CNR.CNR%3D70179757&database=RX&origin=ReaxysOutput&ln=
,CC(=O)CO,605368.0,https://www.reaxys.com/reaxys/secured/hopinto.do?context=S&query=IDE.XRN%3D605368&database=RX&origin=ReaxysOutput&ln=,(707 of 4000),116-09-6,Hydroxyacetone; hydroxy-2-propanone,CH3C(O)CH2OH,C3H6O2,74.0794,acyclic,,XLSMFKSTNGKWQX-UHFFFAOYSA-N,,,,Identification(3773); Physical Data(62); Spectra(91); Bioactivity(248),1955.0,4698.0,-17,,,,,,"Article; Kling; Annales de Chimie (Cachan, France); vol. &lt;8&gt;5; (1905); p. 494; Comptes Rendus Hebdomadaires des Seances de l'Academie des Sciences; vol. 129; (1899); p. 1252;",https://www.reaxys.com/reaxys/secured/hopinto.do?context=C&query=CNR.CNR%3D1303151&database=RX&origin=ReaxysOutput&ln=
,CCOC=O,906769.0,https://www.reaxys.com/reaxys/secured/hopinto.do?context=S&query=IDE.XRN%3D906769&database=RX&origin=ReaxysOutput&ln=,(708 of 4000),109-94-4,formic acid ethyl ester; ethyl formate,HCOOCH2CH3,C3H6O2,74.0794,acyclic,,WBJINCZRORDGAQ-UHFFFAOYSA-N,,,,Identification(454); Physical Data(589); Spectra(125); Bioactivity(390),8995.0,6986.0,-79.4,,,,,,Article; Timmermans; Hennaut-Roland; Journal de Chimie Physique et de Physico-Chimie Biologique; vol. 29; (1932); p. 558;,https://www.reaxys.com/reaxys/secured/hopinto.do?context=C&query=CNR.CNR%3D1141581&database=RX&origin=ReaxysOutput&ln=
,[H]C(C)(O)C=O,1719827.0,https://www.reaxys.com/reaxys/secured/hopinto.do?context=S&query=IDE.XRN%3D1719827&database=RX&origin=ReaxysOutput&ln=,(709 of 4000),3913-65-3,2-hydroxypropanal,C3H6O2,C3H6O2,74.0794,acyclic,,BSABBBMNWQWLLU-UHFFFAOYSA-N,,,,Identification(470); Physical Data(14); Spectra(10); Bioactivity(27),101.0,526.0,105 - 107,,,,,,"Article; Domagk; Heinrich; Biochemische Zeitschrift; vol. 341; (1965); p. 420,425;",https://www.reaxys.com/reaxys/secured/hopinto.do?context=C&query=CNR.CNR%3D4346288&database=RX&origin=ReaxysOutput&ln=
,COC(C)=O,1736662.0,https://www.reaxys.com/reaxys/secured/hopinto.do?context=S&query=IDE.XRN%3D1736662&database=RX&origin=ReaxysOutput&ln=,(710 of 4000),79-20-9,Methyl acetate; acetic acid methyl ester,CH3OOCCH3,C3H6O2,74.0794,acyclic,,KXKVLQRXCPHEJC-UHFFFAOYSA-N,,,,Identification(955); Physical Data(1582); Spectra(275); Bioactivity(242),2531.0,4411.0,-98,,Page/Page column 58,,,,Patent; AICURIS GMBH &amp; CO. KG; WO2018/96177; (2018); A1;,https://www.reaxys.com/reaxys/secured/hopinto.do?context=C&query=CNR.CNR%3D73982778&database=RX&origin=ReaxysOutput&ln=
,OCCC=O,1738038.0,https://www.reaxys.com/reaxys/secured/hopinto.do?context=S&query=IDE.XRN%3D1738038&database=RX&origin=ReaxysOutput&ln=,(711 of 4000),2134-29-4,3-Hydroxypropanal; hydracrylaldehyde,HOC2H4CHO,C3H6O2,74.0794,acyclic,,AKXKFZDCRYJKTF-UHFFFAOYSA-N,,,,Identification(765); Physical Data(10); Spectra(14); Bioactivity(53),115.0,884.0,150,,,,,,Article; Mehrotra; Journal of the Chemical Society B: Physical Organic; (1968); p. 1123;,https://www.reaxys.com/reaxys/secured/hopinto.do?context=C&query=CNR.CNR%3D5307458&database=RX&origin=ReaxysOutput&ln=
,OC1(O)CC1,2343933.0,https://www.reaxys.com/reaxys/secured/hopinto.do?context=S&query=IDE.XRN%3D2343933&database=RX&origin=ReaxysOutput&ln=,(712 of 4000),15144-65-7,cyclopropanone hydrate,C3H6O2,C3H6O2,74.0794,isocyclic,,ZJAPOEKGBGSNBG-UHFFFAOYSA-N,,,,Identification(17); Physical Data(8); Spectra(7); Bioactivity(1),13.0,18.0,82 - 84,benzene,,,,,Article; Schaafsma et al.; Recueil des Travaux Chimiques des Pays-Bas; vol. 86; (1967); p. 651;,https://www.reaxys.com/reaxys/secured/hopinto.do?context=C&query=CNR.CNR%3D5256541&database=RX&origin=ReaxysOutput&ln=
,C#CC#CC#C,1731000.0,https://www.reaxys.com/reaxys/secured/hopinto.do?context=S&query=IDE.XRN%3D1731000&database=RX&origin=ReaxysOutput&ln=,(713 of 4000),3161-99-7,"hexa-1,3,5-triyne; triacetylene; 1,3,5-hexatriyne; hexatriyne; Hexatriin; Triacetylen",H(CC)3H,C6H2,74.0819,acyclic,,MZHROOGPARRVHS-UHFFFAOYSA-N,,,,Identification(140); Physical Data(11); Spectra(27),42.0,176.0,-20,,,,,,"Article; Hunsmann; Chemische Berichte; vol. 83; (1950); p. 213,216;",https://www.reaxys.com/reaxys/secured/hopinto.do?context=C&query=CNR.CNR%3D1408233&database=RX&origin=ReaxysOutput&ln=
,CC(=O)NN,506165.0,https://www.reaxys.com/reaxys/secured/hopinto.do?context=S&query=IDE.XRN%3D506165&database=RX&origin=ReaxysOutput&ln=,(714 of 4000),1068-57-1,acetic acid hydrazide; acetylhydrazine,H2NN(H)C(CH3)O,C2H6N2O,74.0824,acyclic,,OFLXLNCGODUUOT-UHFFFAOYSA-N,,,,Identification(676); Physical Data(74); Spectra(63); Bioactivity(136),2935.0,2423.0,58,ethanol,,,,,"Article; Chehrouri, Manel; Othman, Adil A.; Journal of the Iranian Chemical Society; vol. 19; 3; (2022); p. 893 - 899;",https://www.reaxys.com/reaxys/secured/hopinto.do?context=C&query=CNR.CNR%3D96580342&database=RX&origin=ReaxysOutput&ln=
,CC(N)=NO,605364.0,https://www.reaxys.com/reaxys/secured/hopinto.do?context=S&query=IDE.XRN%3D605364&database=RX&origin=ReaxysOutput&ln=,(715 of 4000),118493-85-9; 117771-39-8; 1141922-26-0,acetamide oxime; N-hydroxyethanimidamide,CH3C(NH2)NOH,C2H6N2O,74.0824,acyclic,,AEXITZJSLGALNH-UHFFFAOYSA-N,,,,Identification(81); Physical Data(33); Spectra(26),559.0,455.0,125 - 130,dichloromethane,,,,,"Article; Ranjan, Chanda; Kumar, Jagdish; Sharma, Kalicharan; Akhter, Mymoona; Siddiqui, Anees A.; Chawla, Gita; Letters in drug design and discovery; vol. 15; 6; (2018); p. 590 - 601;",https://www.reaxys.com/reaxys/secured/hopinto.do?context=C&query=CNR.CNR%3D73943098&database=RX&origin=ReaxysOutput&ln=
,COC(N)=N,635780.0,https://www.reaxys.com/reaxys/secured/hopinto.do?context=S&query=IDE.XRN%3D635780&database=RX&origin=ReaxysOutput&ln=,(716 of 4000),2440-60-0,2-methyl-isourea; O-methylisourea,C2H6ON2,C2H6N2O,74.0824,acyclic,,RMAHPRNLQIRHIJ-UHFFFAOYSA-N,,,,Identification(132); Physical Data(28); Spectra(4); Bioactivity(14),177.0,227.0,44 - 45,,,,,,"Article; Stieglitz; Mc Kee; Chemische Berichte; vol. 33; (1900); p. 1517;; ; Article; Mc Kee; American Chemical Journal; vol. 26; (1901); p. 250;; ; Article; Daniewski et al.; Journal of the Chemical Society; (1962); p. 2340;; ; Article; Piasek; Urbanski; Bulletin de l'Academie Polonaise des Sciences, Serie des Sciences Chimiques; vol. 10; (1962); p. 341;",https://www.reaxys.com/reaxys/secured/hopinto.do?context=C&query=CNR.CNR%3D1451004&database=RX&origin=ReaxysOutput&ln=
,NCC(N)=O,635783.0,https://www.reaxys.com/reaxys/secured/hopinto.do?context=S&query=IDE.XRN%3D635783&database=RX&origin=ReaxysOutput&ln=,(717 of 4000),598-41-4,H-Gly-NH2; Glycinamid,H2NCH2CONH2,C2H6N2O,74.0824,acyclic,,BEBCJVAWIBVWNZ-UHFFFAOYSA-N,,,,Identification(371); Physical Data(71); Spectra(22); Bioactivity(53),561.0,770.0,67.5 - 68.5,CHCl3,,,,,"Article; Komorita et al.; Bulletin of the Chemical Society of Japan; vol. 42; (1969); p. 168,169,170;",https://www.reaxys.com/reaxys/secured/hopinto.do?context=C&query=CNR.CNR%3D5250555&database=RX&origin=ReaxysOutput&ln=
,CNC(N)=O,878189.0,https://www.reaxys.com/reaxys/secured/hopinto.do?context=S&query=IDE.XRN%3D878189&database=RX&origin=ReaxysOutput&ln=,(718 of 4000),598-50-5,N-Methylurea; 1-methylurea; Methylurea,NH2C(O)NHCH3,C2H6N2O,74.0824,acyclic,,XGEGHDBEHXKFPX-UHFFFAOYSA-N,,,,Identification(450); Physical Data(159); Spectra(43); Bioactivity(71),1195.0,1304.0,101,,,,,,"Article; Neupane, Umesh; Rai; Rai; Journal of Thermal Analysis and Calorimetry; vol. 132; 3; (2018); p. 1741 - 1752;",https://www.reaxys.com/reaxys/secured/hopinto.do?context=C&query=CNR.CNR%3D73166902&database=RX&origin=ReaxysOutput&ln=
,C\C(N)=N\O,969280.0,https://www.reaxys.com/reaxys/secured/hopinto.do?context=S&query=IDE.XRN%3D969280&database=RX&origin=ReaxysOutput&ln=,(719 of 4000),118493-85-9; 117771-39-8; 1141922-26-0,N-hydroxyacetamidine; Acetamidoxime,C2H6N2O,C2H6N2O,74.0824,acyclic,,AEXITZJSLGALNH-UHFFFAOYSA-N,,,,Identification(30); Physical Data(16); Spectra(11),158.0,132.0,132 - 136,,supporting information,,,,"Article; Conole, Daniel; Beck, Thorsten M.; Jay-Smith, Morgan; Tingle, Malcolm D.; Eason, Charles T.; Brimble, Margaret A.; Rennison, David; Bioorganic and Medicinal Chemistry; vol. 22; 7; (2014); p. 2220 - 2235;",https://www.reaxys.com/reaxys/secured/hopinto.do?context=C&query=CNR.CNR%3D63179363&database=RX&origin=ReaxysOutput&ln=
,NC(=N)CO,1699083.0,https://www.reaxys.com/reaxys/secured/hopinto.do?context=S&query=IDE.XRN%3D1699083&database=RX&origin=ReaxysOutput&ln=,(720 of 4000),4746-60-5,hydroxyacetamidine; N’-hydroxyacetimidamide; 2-Hydroxy-acetamidin; Glykolamidin; Hydroxyacetamidin; Glykolsaeure-(amid-imid); Glykolsaeureamidin; glycolamidine,C2H6N2O,C2H6N2O,74.0824,acyclic,,YSRCXLROFNRHLU-UHFFFAOYSA-N,,,,Identification(11); Physical Data(5),11.0,10.0,145,,,,,,Article; Schwatschkin; Kriwzow; Journal of general chemistry of the USSR; vol. 34; (1964); p. 2176; Zhurnal Obshchei Khimii; vol. 34; (1964); p. 2164;,https://www.reaxys.com/reaxys/secured/hopinto.do?context=C&query=CNR.CNR%3D2664070&database=RX&origin=ReaxysOutput&ln=
,CN(C)N=O,1738979.0,https://www.reaxys.com/reaxys/secured/hopinto.do?context=S&query=IDE.XRN%3D1738979&database=RX&origin=ReaxysOutput&ln=,(721 of 4000),62-75-9,N-Nitrosodimethylamine,(CH3)2NNO,C2H6N2O,74.0824,acyclic,,UMFJAHHVKNCGLG-UHFFFAOYSA-N,,,,Identification(2910); Physical Data(142); Spectra(104); Bioactivity(430),230.0,3283.0,-28,,,,,,"Article; Krebs; Mandt; Chemische Berichte; vol. 108; (1975); p. 1130,1131,1132;",https://www.reaxys.com/reaxys/secured/hopinto.do?context=C&query=CNR.CNR%3D4549077&database=RX&origin=ReaxysOutput&ln=
,CONC=N,1740627.0,https://www.reaxys.com/reaxys/secured/hopinto.do?context=S&query=IDE.XRN%3D1740627&database=RX&origin=ReaxysOutput&ln=,(722 of 4000),116709-26-3,N-methoxy-formamidine; N-Methoxy-formamidin,C2H6N2O,C2H6N2O,74.0824,acyclic,,WALPDCNEABONMQ-UHFFFAOYSA-N,,,,Identification(5); Physical Data(7),1.0,2.0,40 - 40.5,petroleum ether,,,,,Article; Biddle; Justus Liebigs Annalen der Chemie; vol. 310; (1900); p. 4;,https://www.reaxys.com/reaxys/secured/hopinto.do?context=C&query=CNR.CNR%3D1110279&database=RX&origin=ReaxysOutput&ln=
,CN(N)C=O,2036827.0,https://www.reaxys.com/reaxys/secured/hopinto.do?context=S&query=IDE.XRN%3D2036827&database=RX&origin=ReaxysOutput&ln=,(723 of 4000),758-17-8,1-Methyl-1-formylhydrazid; 1-formyl-1-methylhydrazine; N-methyl-N-formylhydrazine; N-methylformohydrazide; N-Formyl-N-methyl-hydrazin; 1-Formyl-1-methylhydrazin; 1-methyl-1-formyl-hydrazine; N-formyl-N-methylhydrazine,C2H6N2O,C2H6N2O,74.0824,acyclic,,RSFOTOSOKJMMCB-UHFFFAOYSA-N,,,,Identification(40); Physical Data(12); Spectra(8),71.0,61.0,157.9,,,,,,"Article; Delalu, Henri; Sabate, Carlos Miro; Chemistry - An Asian Journal; vol. 7; 4; (2012); p. 715 - 724;",https://www.reaxys.com/reaxys/secured/hopinto.do?context=C&query=CNR.CNR%3D20149615&database=RX&origin=ReaxysOutput&ln=
,NCC=NO,2344724.0,https://www.reaxys.com/reaxys/secured/hopinto.do?context=S&query=IDE.XRN%3D2344724&database=RX&origin=ReaxysOutput&ln=,(724 of 4000),,,C2H6N2O,C2H6N2O,74.0824,acyclic,,ISPRKAJGBITLLD-UHFFFAOYSA-N,,,,Identification(5); Physical Data(1),1.0,1.0,133,H2O,,,,,"Article; Julia,M.; Huynh Dinh Tam; Bulletin de la Societe Chimique de France; (1971); p. 1303 - 1308;",https://www.reaxys.com/reaxys/secured/hopinto.do?context=C&query=CNR.CNR%3D120722&database=RX&origin=ReaxysOutput&ln=
,CON=CN,4796762.0,https://www.reaxys.com/reaxys/secured/hopinto.do?context=S&query=IDE.XRN%3D4796762&database=RX&origin=ReaxysOutput&ln=,(725 of 4000),116709-26-3,,C2H6N2O,C2H6N2O,74.0824,acyclic,,WALPDCNEABONMQ-UHFFFAOYSA-N,,,,Identification(6); Physical Data(2),1.0,1.0,38,,,,,,"Article; Martynov, B. I.; Zhestkov, S. A.; Martynov, I. V.; Journal of Organic Chemistry USSR (English Translation); vol. 27; 1; (1991); p. 61 - 64; Zhurnal Organicheskoi Khimii; vol. 27; 1; (1991); p. 71 - 75;",https://www.reaxys.com/reaxys/secured/hopinto.do?context=C&query=CNR.CNR%3D5590484&database=RX&origin=ReaxysOutput&ln=
,CN\C=N/O,5490233.0,https://www.reaxys.com/reaxys/secured/hopinto.do?context=S&query=IDE.XRN%3D5490233&database=RX&origin=ReaxysOutput&ln=,(726 of 4000),75822-16-1,N-methylformamidoxime,C2H6N2O,C2H6N2O,74.0824,acyclic,,PDFMGHJNJTZXSC-UHFFFAOYSA-N,,,,Identification(6); Physical Data(1); Spectra(3),1.0,1.0,134 - 135,benzene,,Method: subl. sample,,,"Article; Chow, Yuan L.; Horning, Douglas P.; Polo, Joel; Canadian Journal of Chemistry; vol. 58; (1980); p. 2477 - 2483;",https://www.reaxys.com/reaxys/secured/hopinto.do?context=C&query=CNR.CNR%3D5681436&database=RX&origin=ReaxysOutput&ln=
,CN(O)C=N,6185322.0,https://www.reaxys.com/reaxys/secured/hopinto.do?context=S&query=IDE.XRN%3D6185322&database=RX&origin=ReaxysOutput&ln=,(727 of 4000),,N1-Hydroxy-N1-methyl-formamidin,C2H6N2O,C2H6N2O,74.0824,acyclic,,KKYBALNLJYATDG-UHFFFAOYSA-N,,,,Identification(6); Physical Data(1); Spectra(2),1.0,1.0,138,,,Decomposition,,,Article; Zinner; Perner; Grunefeld; Schecker; Archiv der Pharmazie; vol. 319; 12; (1986); p. 1073 - 1079;,https://www.reaxys.com/reaxys/secured/hopinto.do?context=C&query=CNR.CNR%3D5776137&database=RX&origin=ReaxysOutput&ln=