Structure: Image,SMILES,Substance Identification: Reaxys Registry Number,Links to Reaxys,Data Count,CAS Registry Number,Chemical Name,Linear Structure Formula,Molecular Formula,Molecular Weight,Type of Substance,Type and Modification,InChI Key,Composition: Comp. Name,Composition: Comp. Conc.,Composition: Comp. Attrib.,Field Availability,Number of Reactions,Number of References,Melting Point: Melting Point [C],Solvent (Melting Point),Location,Comment (Melting Point),Crystallizes With,Amount (Melting Point) [mol],References,Links to Reaxys.1
,C\C(N)=N/O,8829065.0,https://www.reaxys.com/reaxys/secured/hopinto.do?context=S&query=IDE.XRN%3D8829065&database=RX&origin=ReaxysOutput&ln=,(728 of 4000),22059-22-9; 117771-39-8; 118453-50-2; 118464-69-0; 118493-85-9; 1141922-26-0,(E)-N'-hydroxyacetimidamide; (E)-N’-hydroxyacetimidamide; acetamidoxime; (E)-N-hydroxyacetamidine; 1-(hydroxyimino)ethylamine,C2H6N2O,C2H6N2O,74.0824,acyclic,,AEXITZJSLGALNH-UHFFFAOYSA-N,,,,Identification(10); Physical Data(1); Spectra(1),45.0,31.0,136 - 138,,,,,,"Article; Gangloff, Anthony R.; Litvak, Joane; Shelton, Emma J.; Sperandio, David; Wang, Vivian R.; Rice, Kenneth D.; Tetrahedron Letters; vol. 42; 8; (2001); p. 1441 - 1443;",https://www.reaxys.com/reaxys/secured/hopinto.do?context=C&query=CNR.CNR%3D6288865&database=RX&origin=ReaxysOutput&ln=
,NNC(N)=N,741921.0,https://www.reaxys.com/reaxys/secured/hopinto.do?context=S&query=IDE.XRN%3D741921&database=RX&origin=ReaxysOutput&ln=,(729 of 4000),79-17-4,aminoguanidine,H2NNHCNHNH2,CH6N4,74.0854,acyclic,,HAMNKKUPIHEESI-UHFFFAOYSA-N,,,,Identification(2381); Physical Data(19); Spectra(14); Bioactivity(939),302.0,3279.0,164,,,,,,"Article; Joubert, Jacques; van Dyk, Sandra; Malan, Sarel F.; Bioorganic and Medicinal Chemistry; vol. 16; 19; (2008); p. 8952 - 8958;",https://www.reaxys.com/reaxys/secured/hopinto.do?context=C&query=CNR.CNR%3D8703507&database=RX&origin=ReaxysOutput&ln=
,CN.[H]N=N#N,3908694.0,https://www.reaxys.com/reaxys/secured/hopinto.do?context=S&query=IDE.XRN%3D3908694&database=RX&origin=ReaxysOutput&ln=,(730 of 4000),87321-27-5,methyl ammonium azide; methylamine; azide; Methylamin; Azid,CH3NH3(1+)*N3(1-),CH6N*N3,74.0854,acyclic,,XPJJDBDCQLDJEB-UHFFFAOYSA-N,,,,Identification(6); Physical Data(1),9.0,9.0,140,,,,,,"Article; Cirulis; Straumanis; Journal fur praktische Chemie (Leipzig 1954); vol. &lt;2&gt;161; (1943); p. 65,74;",https://www.reaxys.com/reaxys/secured/hopinto.do?context=C&query=CNR.CNR%3D646370&database=RX&origin=ReaxysOutput&ln=
,CCC([15NH2])=O,2959422.0,https://www.reaxys.com/reaxys/secured/hopinto.do?context=S&query=IDE.XRN%3D2959422&database=RX&origin=ReaxysOutput&ln=,(731 of 4000),120563-94-2,Propionamid ((15)N); (15N)Propionamid; [15N]propionamide,C3H7(15)NO,C3H7NO,74.088,acyclic,,QLNJFJADRCOGBJ-AZXPZELESA-N,,,,Identification(5); Physical Data(2),4.0,2.0,76 - 77,benzene,,,,,"Article; Reinke, H.; Hans, M.; Matos, E.; Dehne, H.; Journal fur praktische Chemie (Leipzig 1954); vol. 330; 5; (1988); p. 801 - 807;",https://www.reaxys.com/reaxys/secured/hopinto.do?context=C&query=CNR.CNR%3D5735841&database=RX&origin=ReaxysOutput&ln=
,[H].O.[K].[H]O[H],16486925.0,https://www.reaxys.com/reaxys/secured/hopinto.do?context=S&query=IDE.XRN%3D16486925&database=RX&origin=ReaxysOutput&ln=,(732 of 4000),,potassium hydroxide hydrate,KOH*H2O,H2O*HKO,74.1209,,,MULNJNDNUUKBCD-UHFFFAOYSA-N,,,,Identification(5); Physical Data(6); Spectra(1),8.0,17.0,147,,,,,,"Article; Kniep, R.; Laumen, M.; Zachos, A.; Thermochimica Acta; vol. 85; (1985); p. 131 - 134; (from Gmelin)",https://www.reaxys.com/reaxys/secured/hopinto.do?context=C&query=CNR.CNR%3D7841936&database=RX&origin=ReaxysOutput&ln=
,CCC(C)O,773649.0,https://www.reaxys.com/reaxys/secured/hopinto.do?context=S&query=IDE.XRN%3D773649&database=RX&origin=ReaxysOutput&ln=,(733 of 4000),78-92-2; 15892-23-6,iso-butanol; 2-Butanol,(C2H5)(CH3)CHOH,C4H10O,74.1228,acyclic,,BTANRVKWQNVYAZ-UHFFFAOYSA-N,,,,Identification(1047); Physical Data(2545); Spectra(149); Bioactivity(331),2471.0,5017.0,-115.15,,,,,,Article; Okazaki; Freeman; Canadian Journal of Chemistry; vol. 56; (1978); p. 2313;,https://www.reaxys.com/reaxys/secured/hopinto.do?context=C&query=CNR.CNR%3D4005464&database=RX&origin=ReaxysOutput&ln=
,CC(C)(C)O,906698.0,https://www.reaxys.com/reaxys/secured/hopinto.do?context=S&query=IDE.XRN%3D906698&database=RX&origin=ReaxysOutput&ln=,(734 of 4000),75-65-0,tert-butyl alcohol; tertiary butyl alcohol; t-Butyl alcohol; tert-butanol; t-butanol,(H3C)3COH,C4H10O,74.1228,acyclic,,DKGAVHZHDRPRBM-UHFFFAOYSA-N,,,,Identification(1137); Physical Data(2355); Spectra(257); Bioactivity(882),14511.0,15112.0,25,,,,,,Article; Woehlisch; Biochemische Zeitschrift; vol. 153; (1924); p. 128;; ; Article; Wood; Such; Scarf; Journal of the Chemical Society; (1926); p. 1935;; ; Article; Adams; Adkins; Journal of the American Chemical Society; vol. 47; (1925); p. 1365; Journal of the American Chemical Society; vol. 47; (1925); p. 1370;; ; Article; Domanska; Venkatesu; Journal of Chemical and Engineering Data; vol. 43; 6; (1998); p. 919 - 924;; ; Patent; USWM; US WORLDMEDS VENTURES; USWM ENTERPRISES; US WORLDMEDS HOLDINGS; US2009/93531; (2009); A1;,https://www.reaxys.com/reaxys/secured/hopinto.do?context=C&query=CNR.CNR%3D1223873&database=RX&origin=ReaxysOutput&ln=
,CCCCO,969148.0,https://www.reaxys.com/reaxys/secured/hopinto.do?context=S&query=IDE.XRN%3D969148&database=RX&origin=ReaxysOutput&ln=,(735 of 4000),71-36-3,butan-1-ol; n-butylalcohol; 1-butanol; n-butanol; butanol,CH3(CH2)2CH2OH,C4H10O,74.1228,acyclic,,LRHPLDYGYMQRHN-UHFFFAOYSA-N,,,,Identification(7098); Physical Data(5296); Spectra(237); Bioactivity(1449),15058.0,23422.0,-89.65,,,,,,"Article; Murthy, S. S. N.; Gangasharan; Nayak, S. K.; Journal of the Chemical Society - Faraday Transactions; vol. 89; 3; (1993); p. 509 - 514;",https://www.reaxys.com/reaxys/secured/hopinto.do?context=C&query=CNR.CNR%3D5755196&database=RX&origin=ReaxysOutput&ln=
,CCOCC,1696894.0,https://www.reaxys.com/reaxys/secured/hopinto.do?context=S&query=IDE.XRN%3D1696894&database=RX&origin=ReaxysOutput&ln=,(736 of 4000),60-29-7,diethyl ether; ethyl ether,(H3CCH2)2O,C4H10O,74.1228,acyclic,,RTZKZFJDLAIYFH-UHFFFAOYSA-N,,,,Identification(2561); Physical Data(2521); Spectra(181); Bioactivity(1320),30994.0,25313.0,-117.15,,,,,,"Article; Moliton; Journal of Molecular Structure; vol. 13; (1972); p. 261,262;",https://www.reaxys.com/reaxys/secured/hopinto.do?context=C&query=CNR.CNR%3D4055712&database=RX&origin=ReaxysOutput&ln=
,CC(C)CO,1730878.0,https://www.reaxys.com/reaxys/secured/hopinto.do?context=S&query=IDE.XRN%3D1730878&database=RX&origin=ReaxysOutput&ln=,(737 of 4000),78-83-1,2-methyl-propan-1-ol; 2-Methyl-1-propanol; i-Butyl alcohol; isobutanol,HOCH2CH(CH3)2,C4H10O,74.1228,acyclic,,ZXEKIIBDNHEJCQ-UHFFFAOYSA-N,,,,Identification(967); Physical Data(1694); Spectra(92); Bioactivity(384),4016.0,6095.0,-108,,,glasig erstarrter Isobutylalkohol.,,,Article; Carrara; Coppadoro; Gazzetta Chimica Italiana; vol. 33 I; (1903); p. 343;,https://www.reaxys.com/reaxys/secured/hopinto.do?context=C&query=CNR.CNR%3D1290160&database=RX&origin=ReaxysOutput&ln=
,CC(N)CN,605274.0,https://www.reaxys.com/reaxys/secured/hopinto.do?context=S&query=IDE.XRN%3D605274&database=RX&origin=ReaxysOutput&ln=,(738 of 4000),78-90-0; 10424-38-1,"1,2-diaminopropan; 1,2-propylenediamine; propane-1,2-diamine; 1,2-propanediamine",H2NCH2(CHNH2)CH3,C3H10N2,74.1258,acyclic,,AOHJOMMDDJHIJH-UHFFFAOYSA-N,,,,Identification(715); Physical Data(162); Spectra(22); Bioactivity(105),1681.0,1805.0,-36.62,,,,,,"Article; Messerly et al.; Journal of Chemical Thermodynamics; vol. 7; (1975); p. 1029,1033,1035-1037,1039,;",https://www.reaxys.com/reaxys/secured/hopinto.do?context=C&query=CNR.CNR%3D4285089&database=RX&origin=ReaxysOutput&ln=
,NCCCN,605277.0,https://www.reaxys.com/reaxys/secured/hopinto.do?context=S&query=IDE.XRN%3D605277&database=RX&origin=ReaxysOutput&ln=,(739 of 4000),109-76-2,"1,3-diaminopropane; 1,3-Propylenediamine; Trimethylenediamine; propane-1,3-diamine; 1,3-propanediamine; propylenediamine; diaminopropane",H2N(CH2CH2CH2)NH2,C3H10N2,74.1258,acyclic,,XFNJVJPLKCPIBV-UHFFFAOYSA-N,,,,Identification(1888); Physical Data(347); Spectra(71); Bioactivity(376),6809.0,6681.0,-12,,,,,,"Article; Yamanaka, Shoji; Umemoto, Keita; Zheng, Zhanfeng; Suzuki, Yuta; Matsui, Hiroshi; Toyota, Naoki; Inumaru, Kei; Journal of Materials Chemistry; vol. 22; 21; (2012); p. 10752 - 10762;",https://www.reaxys.com/reaxys/secured/hopinto.do?context=C&query=CNR.CNR%3D20162503&database=RX&origin=ReaxysOutput&ln=
,CC(C)NN,1209233.0,https://www.reaxys.com/reaxys/secured/hopinto.do?context=S&query=IDE.XRN%3D1209233&database=RX&origin=ReaxysOutput&ln=,(740 of 4000),2257-52-5,N-isopropylhydrazine; isopropylhydrazine; Isopropyl-hydrazin,(CH3)2CHNHNH2,C3H10N2,74.1258,acyclic,,KJAQRHMKLVGSCG-UHFFFAOYSA-N,,,,Identification(54); Physical Data(17); Spectra(3); Bioactivity(11),225.0,207.0,10.9 - 11.2,,,,,,"Article; Stopskii et al.; Metody Polucheniya Khimicheskikh Reaktivov i Preparatov; vol. 26; (1974); p. 198,199,200; Chem.Abstr.; vol. 83; 113583z; Chemisches Zentralblatt; Ref. Zh. Khim. 1975, Abstr.No. 6 ZH 175;",https://www.reaxys.com/reaxys/secured/hopinto.do?context=C&query=CNR.CNR%3D4851178&database=RX&origin=ReaxysOutput&ln=
,[H+].CC(C)(C)N,1846945.0,https://www.reaxys.com/reaxys/secured/hopinto.do?context=S&query=IDE.XRN%3D1846945&database=RX&origin=ReaxysOutput&ln=,(742 of 4000),22534-19-6,tert-butyl ammonium ion; tert-butyl-ammonium,(CH3)3CNH3(1+),C4H12N,74.146,acyclic,,YBRBMKDOPFTVDT-UHFFFAOYSA-O,,,,Identification(27); Physical Data(23); Spectra(1); Bioactivity(2),20.0,30.0,124 - 125,CHCl3,,,,,"Article; Timko et al.; Journal of the American Chemical Society; vol. 99; (1977); p. 4207,4215;",https://www.reaxys.com/reaxys/secured/hopinto.do?context=C&query=CNR.CNR%3D3154522&database=RX&origin=ReaxysOutput&ln=
,C1CSC1,102383.0,https://www.reaxys.com/reaxys/secured/hopinto.do?context=S&query=IDE.XRN%3D102383&database=RX&origin=ReaxysOutput&ln=,(743 of 4000),287-27-4,thiethane; trimethylene sulphide; Thietan,SC3H6,C3H6S,74.1466,heterocyclic,,XSROQCDVUIHRSI-UHFFFAOYSA-N,,,,Identification(167); Physical Data(99); Spectra(56); Bioactivity(20),234.0,375.0,,,,,,,"Article; ??; Molecular Crystals and Liquid Crystals (1969-1991); vol. 43; (1977); p. 189,191;",https://www.reaxys.com/reaxys/secured/hopinto.do?context=C&query=CNR.CNR%3D3299294&database=RX&origin=ReaxysOutput&ln=
,CC1CS1,383559.0,https://www.reaxys.com/reaxys/secured/hopinto.do?context=S&query=IDE.XRN%3D383559&database=RX&origin=ReaxysOutput&ln=,(744 of 4000),1072-43-1,propylene sulphide; propylene sulfide,SCH2CH(CH3),C3H6S,74.1466,heterocyclic,,MBNVSWHUJDDZRH-UHFFFAOYSA-N,,,,Identification(256); Physical Data(56); Spectra(37); Bioactivity(35),421.0,505.0,,,,,,,"Article; Ripmeester; Davidson; Molecular Crystals and Liquid Crystals (1969-1991); vol. 43; (1977); p. 189,191;",https://www.reaxys.com/reaxys/secured/hopinto.do?context=C&query=CNR.CNR%3D3299288&database=RX&origin=ReaxysOutput&ln=
,SCC=C,1697523.0,https://www.reaxys.com/reaxys/secured/hopinto.do?context=S&query=IDE.XRN%3D1697523&database=RX&origin=ReaxysOutput&ln=,(745 of 4000),870-23-5,prop-2-ene-1-thiol,CH2CHCH2SH,C3H6S,74.1466,acyclic,,ULIKDJVNUXNQHS-UHFFFAOYSA-N,,,,Identification(541); Physical Data(26); Spectra(23); Bioactivity(63),765.0,1009.0,66 - 67,,,,,,Patent; Spiess; NL6510637; (1967); A; Chem.Abstr.; vol. 67; 53674; (1967); Chem.Abstr.; vol. 67; 53674; (1967);,https://www.reaxys.com/reaxys/secured/hopinto.do?context=C&query=CNR.CNR%3D4246827&database=RX&origin=ReaxysOutput&ln=
,C[SiH](C)C,1730779.0,https://www.reaxys.com/reaxys/secured/hopinto.do?context=S&query=IDE.XRN%3D1730779&database=RX&origin=ReaxysOutput&ln=,(746 of 4000),993-07-7,HSiMe3; trimethylsilan,Si(CH3)3H,C3H10Si,74.1979,acyclic,,PQDJYEQOELDLCP-UHFFFAOYSA-N,,,,Identification(511); Physical Data(84); Spectra(92); Bioactivity(56),819.0,1116.0,-135.89,,,,,,"Article; Tannenbaum et al.; Journal of the American Chemical Society; vol. 75; (1953); p. 3752,3754;",https://www.reaxys.com/reaxys/secured/hopinto.do?context=C&query=CNR.CNR%3D1277893&database=RX&origin=ReaxysOutput&ln=
,ClC1C=C1,2036541.0,https://www.reaxys.com/reaxys/secured/hopinto.do?context=S&query=IDE.XRN%3D2036541&database=RX&origin=ReaxysOutput&ln=,(747 of 4000),17336-56-0,3-chlorocyclopropene; 3-Chlorcyclopropen,C3H3Cl,C3H3Cl,74.5098,isocyclic,,DCLDCYQLHKUPKF-UHFFFAOYSA-N,,,,Identification(9); Physical Data(1); Spectra(11),6.0,9.0,-77,,,,,,"Article; Breslow,R. et al.; Journal of the American Chemical Society; vol. 92; (1970); p. 988 - 993;",https://www.reaxys.com/reaxys/secured/hopinto.do?context=C&query=CNR.CNR%3D61388&database=RX&origin=ReaxysOutput&ln=
,[H]B([H])[H].CN(C)O,3665741.0,https://www.reaxys.com/reaxys/secured/hopinto.do?context=S&query=IDE.XRN%3D3665741&database=RX&origin=ReaxysOutput&ln=,(749 of 4000),,"N,N-dimethyl-hydroxylamine; compound with borane; N,N-Dimethyl-hydroxylamin; Verbindung mit Boran",C2H7NO*BH3,BH3*C2H7NO,74.9185,acyclic,,IAXABRIAHYWDRE-UHFFFAOYSA-N,,,,Identification(5); Physical Data(2),,1.0,2 - 4,,,,,,"Article; Campbell et al.; Journal of the American Chemical Society; vol. 80; (1958); p. 1549,1550;",https://www.reaxys.com/reaxys/secured/hopinto.do?context=C&query=CNR.CNR%3D1275079&database=RX&origin=ReaxysOutput&ln=
,[H]B([H])[H].CNOC,3665742.0,https://www.reaxys.com/reaxys/secured/hopinto.do?context=S&query=IDE.XRN%3D3665742&database=RX&origin=ReaxysOutput&ln=,(750 of 4000),,"N,O-dimethyl-hydroxylamine; compound with borane; N,O-Dimethyl-hydroxylamin; Verbindung mit Boran",C2H7NO*BH3,BH3*C2H7NO,74.9185,acyclic,,PFRXGPYKMPWIJE-UHFFFAOYSA-N,,,,Identification(5); Physical Data(1),,1.0,-23 - -21,,,Bei schnellem Erwaermen auf 100grad erfolgt Detonation.,,,"Article; Bissot et al.; Journal of the American Chemical Society; vol. 80; (1958); p. 1868,1869,1870;",https://www.reaxys.com/reaxys/secured/hopinto.do?context=C&query=CNR.CNR%3D1275073&database=RX&origin=ReaxysOutput&ln=
,[H].[H].[H].[H].[H].[H].[Li].N.N.N.N,15921570.0,https://www.reaxys.com/reaxys/secured/hopinto.do?context=S&query=IDE.XRN%3D15921570&database=RX&origin=ReaxysOutput&ln=,(755 of 4000),,lithium tetraammine,Li(NH3)4,H12LiN4,75.0631,Coordination compound,,WQYUPZCSILXNRA-UHFFFAOYSA-N,,,,Identification(5); Physical Data(14),,10.0,-185,,,,,,"Article; Birch, A. J.; MacDonald, D. K. C.; Nature; vol. 159; (1947); p. 811 - 812;; ; Article; Birch, A. J.; McDonald, D. K. C.; Journal of Chemical Physics; vol. 16; (1948); p. 741;; ; Article; Birch, A. J.; MacDonald, D. K. C.; Transactions of the Faraday Society; vol. 44; (1948); p. 735 - 742;; ; Article; Gmelin Handbuch der Anorganischen Chemie; vol. Li: SVol.; 60, page 279 - 281; (from Gmelin)",https://www.reaxys.com/reaxys/secured/hopinto.do?context=C&query=CNR.CNR%3D7301039&database=RX&origin=ReaxysOutput&ln=
,COC(N)=O,635779.0,https://www.reaxys.com/reaxys/secured/hopinto.do?context=S&query=IDE.XRN%3D635779&database=RX&origin=ReaxysOutput&ln=,(756 of 4000),598-55-0,methyl carbamate; O-methyl carbamate; carbamic acid methyl ester,H2NCOOCH3,C2H5NO2,75.0672,acyclic,,GTCAXTIRRLKXRU-UHFFFAOYSA-N,,,,Identification(626); Physical Data(88); Spectra(32); Bioactivity(76),809.0,1101.0,51 - 53,diethyl ether,,,,,"Article; Sardarian, Ali Reza; Inaloo, Iman Dindarloo; RSC Advances; vol. 5; 93; (2015); p. 76626 - 76641;",https://www.reaxys.com/reaxys/secured/hopinto.do?context=C&query=CNR.CNR%3D67087372&database=RX&origin=ReaxysOutput&ln=
,NCC(O)=O,635782.0,https://www.reaxys.com/reaxys/secured/hopinto.do?context=S&query=IDE.XRN%3D635782&database=RX&origin=ReaxysOutput&ln=,(757 of 4000),56-40-6,glycine,NH2CH2C(O)OH,C2H5NO2,75.0672,acyclic,,DHMQDGOQFOQNFH-UHFFFAOYSA-N,,,,Identification(43369); Physical Data(2473); Spectra(334); Bioactivity(3636),9687.0,53041.0,215,,,,,,"Article; Sevgi, Fatih; Bagkesici, Ugur; Kursunlu, Ahmed Nuri; Guler, Ersin; Journal of Molecular Structure; vol. 1154; (2018); p. 256 - 260;",https://www.reaxys.com/reaxys/secured/hopinto.do?context=C&query=CNR.CNR%3D72406758&database=RX&origin=ReaxysOutput&ln=
,CCN(=O)=O,1209324.0,https://www.reaxys.com/reaxys/secured/hopinto.do?context=S&query=IDE.XRN%3D1209324&database=RX&origin=ReaxysOutput&ln=,(758 of 4000),79-24-3,Nitroethane,O2NCH2CH3,C2H5NO2,75.0672,acyclic,,MCSAJNNLRCFZED-UHFFFAOYSA-N,,,,Identification(718); Physical Data(517); Spectra(90); Bioactivity(193),5279.0,3797.0,-89.52,,,,,,Article; Toops; Journal of Physical Chemistry; vol. 60; (1956); p. 304;,https://www.reaxys.com/reaxys/secured/hopinto.do?context=C&query=CNR.CNR%3D1391526&database=RX&origin=ReaxysOutput&ln=
,CO\C=N\O,1736807.0,https://www.reaxys.com/reaxys/secured/hopinto.do?context=S&query=IDE.XRN%3D1736807&database=RX&origin=ReaxysOutput&ln=,(759 of 4000),81745-45-1,methyl formhydroximate; formohydroximic acid methyl ester; Formohydroximsaeure-methylester,C2H5NO2,C2H5NO2,75.0672,acyclic,,SAVQHTANTNPHPV-NSCUHMNNSA-N,,,,Identification(7); Physical Data(3); Spectra(1),3.0,3.0,85 - 86,CCl4,,,,,"Article; El-Seedi, Hesham R.; Jensen, Henrik M.; Kure, Niels; Thomsen, Ib; Torssell, Kurt B. G.; Acta Chemica Scandinavica; vol. 47; 10; (1993); p. 1004 - 1011;",https://www.reaxys.com/reaxys/secured/hopinto.do?context=C&query=CNR.CNR%3D5853698&database=RX&origin=ReaxysOutput&ln=
,CC(=O)NO,1739019.0,https://www.reaxys.com/reaxys/secured/hopinto.do?context=S&query=IDE.XRN%3D1739019&database=RX&origin=ReaxysOutput&ln=,(760 of 4000),546-88-3,acetylhydroxamic acid; Acetohydroxamic acid,CH3CONHOH,C2H5NO2,75.0672,acyclic,,RRUDCFGSUDOHDG-UHFFFAOYSA-N,,,,Identification(593); Physical Data(214); Spectra(57); Bioactivity(304),640.0,1225.0,88,,,,,,"Article; Al Fantazi, Akram; Asatkar, Ashish; Ebenso, Eno E.; Hussain, Chaudhery Mustansar; Khan, Fahmida; Verma, Chandrabhan; Verma, Dakeshwar Kumar; Journal of Molecular Liquids; vol. 314; (2020);",https://www.reaxys.com/reaxys/secured/hopinto.do?context=C&query=CNR.CNR%3D80188386&database=RX&origin=ReaxysOutput&ln=
,NC(=O)CO,1739047.0,https://www.reaxys.com/reaxys/secured/hopinto.do?context=S&query=IDE.XRN%3D1739047&database=RX&origin=ReaxysOutput&ln=,(761 of 4000),598-42-5,glycolamide; 2-hydroxy-acetamide; 2-Hydroxy-acetamid,HOCH2CONH2,C2H5NO2,75.0672,acyclic,,TZGPACAKMCUCKX-UHFFFAOYSA-N,,,,Identification(119); Physical Data(41); Spectra(19); Bioactivity(1),132.0,235.0,114.7 - 116,,supporting information,,,,"Article; Kanda, Tomoya; Naraoka, Asuka; Naka, Hiroshi; Journal of the American Chemical Society; vol. 141; 2; (2019); p. 825 - 830;",https://www.reaxys.com/reaxys/secured/hopinto.do?context=C&query=CNR.CNR%3D75760147&database=RX&origin=ReaxysOutput&ln=
,CONC=O,1740628.0,https://www.reaxys.com/reaxys/secured/hopinto.do?context=S&query=IDE.XRN%3D1740628&database=RX&origin=ReaxysOutput&ln=,(762 of 4000),34005-41-9,N-methoxy-formamide; N-Methoxy-formamid,C2H5NO2,C2H5NO2,75.0672,acyclic,,BYYUJTPNKCFZST-UHFFFAOYSA-N,,,,Identification(13); Physical Data(11); Spectra(4),6.0,12.0,38,,,,,,"Article; Parsons; Journal of Molecular Spectroscopy; vol. 2; (1958); p. 566,568,569;",https://www.reaxys.com/reaxys/secured/hopinto.do?context=C&query=CNR.CNR%3D1175090&database=RX&origin=ReaxysOutput&ln=
,OCC=NO,1847923.0,https://www.reaxys.com/reaxys/secured/hopinto.do?context=S&query=IDE.XRN%3D1847923&database=RX&origin=ReaxysOutput&ln=,(763 of 4000),37110-02-4,hydroxyacetaldehyde oxime,C2H5NO2,C2H5NO2,75.0672,acyclic,,XDFCKHNPTCLLTI-UHFFFAOYSA-N,,,,Identification(8); Physical Data(1),9.0,7.0,48 - 50,,,,,,"Article; Kahr,K.; Berther,C.; Chemische Berichte; vol. 93; (1960); p. 132 - 136;; ; Patent; Novartis (w/o Sandoz); NOVARTIS AG; DE2338010; (1974); A1; Chem.Abstr.; vol. 80; 132803; Chem.Abstr.; vol. 80; 132803;",https://www.reaxys.com/reaxys/secured/hopinto.do?context=C&query=CNR.CNR%3D35836&database=RX&origin=ReaxysOutput&ln=