Structure: Image,SMILES,Substance Identification: Reaxys Registry Number,Links to Reaxys,Data Count,CAS Registry Number,Chemical Name,Linear Structure Formula,Molecular Formula,Molecular Weight,Type of Substance,Type and Modification,InChI Key,Composition: Comp. Name,Composition: Comp. Conc.,Composition: Comp. Attrib.,Field Availability,Number of Reactions,Number of References,Melting Point: Melting Point [C],Solvent (Melting Point),Location,Comment (Melting Point),Crystallizes With,Amount (Melting Point) [mol],References,Links to Reaxys.1
,CC(=O)C(O)=O,506211.0,https://www.reaxys.com/reaxys/secured/hopinto.do?context=S&query=IDE.XRN%3D506211&database=RX&origin=ReaxysOutput&ln=,(1609 of 4000),127-17-3,2-oxo-propionic acid; pyruvic acid,CH3C(O)COOH,C3H4O3,88.063,acyclic,,LCTONWCANYUPML-UHFFFAOYSA-N,,,,Identification(4390); Physical Data(220); Spectra(104); Bioactivity(582),4748.0,7862.0,11,,,Method: distilled sample,,,"Article; Pietrzynski, Grzegorz; Kubica, Zbigniew; Rzeszotarska, Barbara; Bulletin of the Polish Academy of Sciences: Chemistry; vol. 37; 9-12; (1989); p. 363 - 370;",https://www.reaxys.com/reaxys/secured/hopinto.do?context=C&query=CNR.CNR%3D5744821&database=RX&origin=ReaxysOutput&ln=
,CC(=O)OC=O,773835.0,https://www.reaxys.com/reaxys/secured/hopinto.do?context=S&query=IDE.XRN%3D773835&database=RX&origin=ReaxysOutput&ln=,(1610 of 4000),2258-42-6,Acetic formic anhydride; formyl acetic anhydride,CH3C(O)OC(O)H,C3H4O3,88.063,acyclic,,ORWKVZNEPHTCQE-UHFFFAOYSA-N,,,,Identification(150); Physical Data(26); Spectra(19); Bioactivity(72),2659.0,1324.0,146.5 - 147.5,,,,,,Patent; UNILEVER (PLC &amp; NV); US4276295; (1981); A;,https://www.reaxys.com/reaxys/secured/hopinto.do?context=C&query=CNR.CNR%3D47824&database=RX&origin=ReaxysOutput&ln=
,OC=C(O)C=O,1699410.0,https://www.reaxys.com/reaxys/secured/hopinto.do?context=S&query=IDE.XRN%3D1699410&database=RX&origin=ReaxysOutput&ln=,(1611 of 4000),636-38-4,3-hydroxy-2-oxo-propionaldehyde,C3H4O3,C3H4O3,88.063,acyclic,,NGSULTPMGQCSHK-UHFFFAOYSA-N,,,,Identification(28); Physical Data(29); Spectra(17),132.0,123.0,200 - 215,acetic acid,,Decomposition,,,Article; Bycroft; Cameron; Croft; Hassanali-Walji; Johnson; Webb; Journal of the Chemical Society. Perkin transactions I; vol. 6; (1972); p. 827 - 834;,https://www.reaxys.com/reaxys/secured/hopinto.do?context=C&query=CNR.CNR%3D154793&database=RX&origin=ReaxysOutput&ln=
,OC(C=O)C=O,1740168.0,https://www.reaxys.com/reaxys/secured/hopinto.do?context=S&query=IDE.XRN%3D1740168&database=RX&origin=ReaxysOutput&ln=,(1612 of 4000),497-15-4,"2-hydroxymalonaldehyde; 2-hydroxy-3-oxopropionaldehyde; hydroxypropanedial; 2,3-dihydroxy-propenal; hydroxymalonaldehyde; 2-hydroxymalondialdehyde; Tartronaldehyd",C3H4O3,C3H4O3,88.063,acyclic,,NVXLIZQNSVLKPO-UHFFFAOYSA-N,,,,Identification(33); Physical Data(1),9.0,33.0,116,,,Decomposition,,,"Article; Hesse,G. et al.; Chemische Berichte; vol. 99; (1966); p. 1810 - 1814;",https://www.reaxys.com/reaxys/secured/hopinto.do?context=C&query=CNR.CNR%3D38738&database=RX&origin=ReaxysOutput&ln=
,COC(=O)C=O,1740228.0,https://www.reaxys.com/reaxys/secured/hopinto.do?context=S&query=IDE.XRN%3D1740228&database=RX&origin=ReaxysOutput&ln=,(1613 of 4000),922-68-9,Methyl glyoxylate; oxoacetic acid methyl ester,CH3OOCCHO,C3H4O3,88.063,acyclic,,KFKXSMSQHIOMSO-UHFFFAOYSA-N,,,,Identification(132); Physical Data(19); Spectra(11),743.0,515.0,,,,Crystallization with 1 Mol(s) H2O,,,"Article; Ernest,I. et al.; Journal of the American Chemical Society; vol. 100; (1978); p. 8214 - 8222;",https://www.reaxys.com/reaxys/secured/hopinto.do?context=C&query=CNR.CNR%3D74368&database=RX&origin=ReaxysOutput&ln=
,OC(=O)OC=C,1849321.0,https://www.reaxys.com/reaxys/secured/hopinto.do?context=S&query=IDE.XRN%3D1849321&database=RX&origin=ReaxysOutput&ln=,(1614 of 4000),44414-27-9,Aethylencarbonat,C3H4O3,C3H4O3,88.063,acyclic,,FXPHJTKVWZVEGA-UHFFFAOYSA-N,,,,Identification(139); Physical Data(4); Spectra(3),,129.0,36.4,,,,,,"Article; Novoselov et al.; Journal of applied chemistry of the USSR; vol. 49; (1976); p. 1519,1520; Zhurnal Prikladnoi Khimii (Sankt-Peterburg, Russian Federation); vol. 49; (1976); p. 1486;",https://www.reaxys.com/reaxys/secured/hopinto.do?context=C&query=CNR.CNR%3D4505668&database=RX&origin=ReaxysOutput&ln=
,O\C=C(/O)C=O,1901781.0,https://www.reaxys.com/reaxys/secured/hopinto.do?context=S&query=IDE.XRN%3D1901781&database=RX&origin=ReaxysOutput&ln=,(1615 of 4000),52126-82-6,"trioseredukton; 2,3-dihydroxyprop-2-enal; (Z)-2,3-dihydroxy-propenal; hydroxymalonaldehyde (Z)-enediol tautomer; 2,3-dihydroxy-2-propenal",C3H4O3,C3H4O3,88.063,acyclic,,NGSULTPMGQCSHK-IWQZZHSRSA-N,,,,Identification(17); Physical Data(5); Spectra(6),6.0,20.0,149,,,,,,Article; Obata; Tokuyama; Nippon Kagaku Zasshi; vol. 91; (1970); p. 1098; Chem.Abstr.; vol. 74; (1971); p. 142206;,https://www.reaxys.com/reaxys/secured/hopinto.do?context=C&query=CNR.CNR%3D1438403&database=RX&origin=ReaxysOutput&ln=
,ON=CC=NO,1699539.0,https://www.reaxys.com/reaxys/secured/hopinto.do?context=S&query=IDE.XRN%3D1699539&database=RX&origin=ReaxysOutput&ln=,(1616 of 4000),557-30-2,glyoxime,HC(NOH)CH(NOH),C2H4N2O2,88.066,acyclic,,LJHFIVQEAFAURQ-UHFFFAOYSA-N,,,,Identification(14); Physical Data(21); Spectra(25),147.0,154.0,172 - 174,,,,,,"Article; Van Der Peet, Phillip L.; Connell, Timothy U.; Gunawan, Christian; White, Jonathan M.; Donnelly, Paul S.; Williams, Spencer J.; Journal of Organic Chemistry; vol. 78; 14; (2013); p. 7298 - 7304;",https://www.reaxys.com/reaxys/secured/hopinto.do?context=C&query=CNR.CNR%3D38270225&database=RX&origin=ReaxysOutput&ln=
,NC(=O)C=NO,1700363.0,https://www.reaxys.com/reaxys/secured/hopinto.do?context=S&query=IDE.XRN%3D1700363&database=RX&origin=ReaxysOutput&ln=,(1617 of 4000),44396-48-7,Glyoxylsaeureamid-oxim; hydroxyimino-acetic acid amide; Hydroxyimino-essigsaeure-amid,C2H4N2O2,C2H4N2O2,88.066,acyclic,,NXZLTPQEYLXQCH-UHFFFAOYSA-N,,,,Identification(9); Physical Data(5),7.0,6.0,141,acetic acid; petroleum ether,,Decomposition,,,"Article; Grundmann,C.; Fulton,M.B.; Chemische Berichte; vol. 97; (1964); p. 566 - 574;",https://www.reaxys.com/reaxys/secured/hopinto.do?context=C&query=CNR.CNR%3D37617&database=RX&origin=ReaxysOutput&ln=
,ON=CNC=O,1700824.0,https://www.reaxys.com/reaxys/secured/hopinto.do?context=S&query=IDE.XRN%3D1700824&database=RX&origin=ReaxysOutput&ln=,(1618 of 4000),90801-74-4,N-Formyl-formamidoxim; N-formyl-formamide oxime,C2H4N2O2,C2H4N2O2,88.066,acyclic,,IWPULIMDOVKQMP-UHFFFAOYSA-N,,,,Identification(7); Physical Data(3),3.0,2.0,146 - 147,ethanol,,Decomposition,,,"Article; Moussebois,C. et al.; Helvetica Chimica Acta; vol. 45; (1962); p. 446 - 449;",https://www.reaxys.com/reaxys/secured/hopinto.do?context=C&query=CNR.CNR%3D4564&database=RX&origin=ReaxysOutput&ln=
,O=CNNC=O,1740259.0,https://www.reaxys.com/reaxys/secured/hopinto.do?context=S&query=IDE.XRN%3D1740259&database=RX&origin=ReaxysOutput&ln=,(1619 of 4000),628-36-4,"diformylhydrazine; 1,2-diformyl-hydrazine; N,N'-diformylhydrazine; bisformylhydrazine; N'-formylformohydrazide; N,N'-bisformylhydrazine; 1,2-hydrazinedicarboxaldehyde; N,N’-diformylhydrazine; N-formamidoformamide; bis-formic hydrazide; diformylhydrazide",CHONHNHCHO,C2H4N2O2,88.066,acyclic,,POVXOWVFLAAVBH-UHFFFAOYSA-N,,,,Identification(109); Physical Data(36); Spectra(35),191.0,312.0,155 - 156,,,,,,"Short Survey; Belova, Liya O.; Pletneva, Maria V.; Golub, Nataliya A.; Kirilin, Aleksei D.; Sheludyakov, Viktor D.; Storozhenko, Pavel A.; Korlyukov, Alexander A.; Mendeleev Communications; vol. 25; 5; (2015); p. 395 - 396;",https://www.reaxys.com/reaxys/secured/hopinto.do?context=C&query=CNR.CNR%3D67248545&database=RX&origin=ReaxysOutput&ln=
,NC(=O)NC=O,1745350.0,https://www.reaxys.com/reaxys/secured/hopinto.do?context=S&query=IDE.XRN%3D1745350&database=RX&origin=ReaxysOutput&ln=,(1620 of 4000),1190-24-5,formylurea; Formyl-harnstoff; N-formyl urea; N-Formylharnstoff,C2H4N2O2,C2H4N2O2,88.066,acyclic,,JOWMUPQBELRFRZ-UHFFFAOYSA-N,,,,Identification(44); Physical Data(13); Spectra(1),25.0,60.0,163 - 165,,,,,,"Article; Kitagawa et al.; Chemical and pharmaceutical bulletin; vol. 22; (1974); p. 1827,1832, 1833;",https://www.reaxys.com/reaxys/secured/hopinto.do?context=C&query=CNR.CNR%3D4328322&database=RX&origin=ReaxysOutput&ln=
,NC(=N)C(O)=O,1849925.0,https://www.reaxys.com/reaxys/secured/hopinto.do?context=S&query=IDE.XRN%3D1849925&database=RX&origin=ReaxysOutput&ln=,(1621 of 4000),27203-24-3,amidinoformic acid,C2H4N2O2,C2H4N2O2,88.066,acyclic,,WHSFCMKKZRMSEQ-UHFFFAOYSA-N,,,,Identification(12); Physical Data(8); Spectra(4),7.0,13.0,274,,supporting information,,,,"Article; Vo, Thao T.; Parrish, Damon A.; Shreeve, Jean'Ne M.; Journal of the American Chemical Society; vol. 136; 34; (2014); p. 11934 - 11937;",https://www.reaxys.com/reaxys/secured/hopinto.do?context=C&query=CNR.CNR%3D64131380&database=RX&origin=ReaxysOutput&ln=
,CC(=O)NN=O,1850663.0,https://www.reaxys.com/reaxys/secured/hopinto.do?context=S&query=IDE.XRN%3D1850663&database=RX&origin=ReaxysOutput&ln=,(1622 of 4000),98025-74-2,N-Nitroso-acetanilid,C2H4N2O2,C2H4N2O2,88.066,acyclic,,MOTYWXWYBWDESX-UHFFFAOYSA-N,,,,Identification(6); Physical Data(1),1.0,2.0,49 - 50,,,Decomposition,,,"Article; Bunyan,P.J.; Cadogan,J.I.G.; Journal of the Chemical Society; (1962); p. 1304 - 1308;",https://www.reaxys.com/reaxys/secured/hopinto.do?context=C&query=CNR.CNR%3D160974&database=RX&origin=ReaxysOutput&ln=
,O\N=C/C=N\O,1901724.0,https://www.reaxys.com/reaxys/secured/hopinto.do?context=S&query=IDE.XRN%3D1901724&database=RX&origin=ReaxysOutput&ln=,(1623 of 4000),81745-49-5,"glyoxal (Z,Z)-dioxime",C2H4N2O2,C2H4N2O2,88.066,acyclic,,LJHFIVQEAFAURQ-CCAGOZQPSA-N,,,,Identification(56); Physical Data(6),,50.0,178,aq. ethanol,,,,,"Article; Calleri; Ferraris; Acta Crystallographica; vol. 20; (1966); p. 73,75, 78, 79;",https://www.reaxys.com/reaxys/secured/hopinto.do?context=C&query=CNR.CNR%3D3856947&database=RX&origin=ReaxysOutput&ln=
,O\N=C\C=N\O,1901725.0,https://www.reaxys.com/reaxys/secured/hopinto.do?context=S&query=IDE.XRN%3D1901725&database=RX&origin=ReaxysOutput&ln=,(1624 of 4000),17016-13-6,"glyoxime; 1,2-ethanedione dioxime",C2H4N2O2,C2H4N2O2,88.066,acyclic,,LJHFIVQEAFAURQ-ZPUQHVIOSA-N,,,,Identification(11); Physical Data(13); Spectra(3),8.0,16.0,181,,,,,,"Article; Pigenet,C. et al.; Bulletin de la Societe Chimique de France; (1970); p. 2124 - 2132;",https://www.reaxys.com/reaxys/secured/hopinto.do?context=C&query=CNR.CNR%3D120279&database=RX&origin=ReaxysOutput&ln=
,N\C=C/N(=O)=O,4362720.0,https://www.reaxys.com/reaxys/secured/hopinto.do?context=S&query=IDE.XRN%3D4362720&database=RX&origin=ReaxysOutput&ln=,(1625 of 4000),86602-46-2,(Z)-1-amino-2-nitroethene; (Z)-2-nitroethenamine; (Z)-2-nitroethen-1-amine,C2H4N2O2,C2H4N2O2,88.066,acyclic,,IXAGRXJIXIPQDR-UPHRSURJSA-N,,,,Identification(10); Physical Data(5); Spectra(25),6.0,8.0,100.1 - 101.2,,,,,,"Article; Hajzer, Viktória; Fišera, Roman; Latika, Attila; Durmis, Július; Kollár, Jakub; Frecer, Vladimír; Tučeková, Zuzana; Miertuš, Stanislav; Kostolanský, František; Varečková, Eva; Šebesta, Radovan; Organic and Biomolecular Chemistry; vol. 15; 8; (2017); p. 1828 - 1841;",https://www.reaxys.com/reaxys/secured/hopinto.do?context=C&query=CNR.CNR%3D70726959&database=RX&origin=ReaxysOutput&ln=
,C[13C](=O)C(N)=O,1904500.0,https://www.reaxys.com/reaxys/secured/hopinto.do?context=S&query=IDE.XRN%3D1904500&database=RX&origin=ReaxysOutput&ln=,(1626 of 4000),89491-34-9,<2-13C>-Brenztraubensaeure-amid,C2(13)CH5NO2,C3H5NO2,88.0672,acyclic,,FPOLWERNILTNDK-VQEHIDDOSA-N,,,,Identification(5); Physical Data(1),1.0,2.0,127,ethyl acetate,,,,,"Article; Das et al.; Proceedings - Indian Academy of Sciences, Section A; vol. 56; (1962); p. 103,105;",https://www.reaxys.com/reaxys/secured/hopinto.do?context=C&query=CNR.CNR%3D3921510&database=RX&origin=ReaxysOutput&ln=
,NC(=N)NN=O,1749519.0,https://www.reaxys.com/reaxys/secured/hopinto.do?context=S&query=IDE.XRN%3D1749519&database=RX&origin=ReaxysOutput&ln=,(1627 of 4000),674-81-7,nitrosoguanidine; Nitroso-guanidin; N-nitrosoguanidine,ONNHC(NH)NH2,CH4N4O,88.069,acyclic,,WTLKTXIHIHFSGU-UHFFFAOYSA-N,,,,Identification(290); Physical Data(11); Spectra(1),68.0,328.0,164 - 165,,,,,,Patent; Egyesult Gyogyszer es Tapszergyar; HU152648; (1966); S1; Chem.Abstr.; vol. 65; 696c; (1966); Chem.Abstr.; vol. 65; 696c; (1966);,https://www.reaxys.com/reaxys/secured/hopinto.do?context=C&query=CNR.CNR%3D3613512&database=RX&origin=ReaxysOutput&ln=
,NC(N)=NN=O,2234742.0,https://www.reaxys.com/reaxys/secured/hopinto.do?context=S&query=IDE.XRN%3D2234742&database=RX&origin=ReaxysOutput&ln=,(1628 of 4000),674-81-7,Nitrosoguanidin,CH4N4O,CH4N4O,88.069,acyclic,,WTLKTXIHIHFSGU-UHFFFAOYSA-N,,,,Identification(8); Physical Data(8); Spectra(6),5.0,5.0,160,H2O,,Decomposition,,,"Article; Murmann; Glaser, Rainer; Barnes, Charles L.; Journal of Chemical Crystallography; vol. 35; 4; (2005); p. 317 - 325;",https://www.reaxys.com/reaxys/secured/hopinto.do?context=C&query=CNR.CNR%3D6648498&database=RX&origin=ReaxysOutput&ln=
,CC(=O)\C=[15N]\O,1853906.0,https://www.reaxys.com/reaxys/secured/hopinto.do?context=S&query=IDE.XRN%3D1853906&database=RX&origin=ReaxysOutput&ln=,(1629 of 4000),36103-07-8,2-oxo-propionaldehyde (E)-[15N]oxime,C3H5(15)NO2,C3H5NO2,88.0715,acyclic,,OVGLVOLWBBGQHS-NKZKACABSA-N,,,,Identification(6); Physical Data(1); Spectra(1),1.0,1.0,64,,,,,,Article; Somin; Gindin; Journal of Organic Chemistry USSR (English Translation); vol. 8; (1972); p. 424; Zhurnal Organicheskoi Khimii; vol. 8; (1972); p. 424;,https://www.reaxys.com/reaxys/secured/hopinto.do?context=C&query=CNR.CNR%3D3856965&database=RX&origin=ReaxysOutput&ln=
,[2H]C(C)=C([2H])C(O)=O,1852948.0,https://www.reaxys.com/reaxys/secured/hopinto.do?context=S&query=IDE.XRN%3D1852948&database=RX&origin=ReaxysOutput&ln=,(1630 of 4000),,"2,3-Dideuteriun-crotonsaeure; 2,3-dideuterio-but-2-enoic acid",C4H4D2O2,C4H6O2,88.0746,acyclic,,LDHQCZJRKDOVOX-PBNXXWCMSA-N,,,,Identification(6); Physical Data(1),1.0,1.0,71 - 72,D2O,,,,,"Article; Bergson; Weidler; Acta Chemica Scandinavica (1947); vol. 18; (1964); p. 1498,1501;",https://www.reaxys.com/reaxys/secured/hopinto.do?context=C&query=CNR.CNR%3D4603801&database=RX&origin=ReaxysOutput&ln=
,C\C=C\[14C](O)=O,1903584.0,https://www.reaxys.com/reaxys/secured/hopinto.do?context=S&query=IDE.XRN%3D1903584&database=RX&origin=ReaxysOutput&ln=,(1631 of 4000),90980-76-0,1-(14C)-trans-Crotonsaeure; [1-14C]but-2t-enoic acid,C3(14)CH6O2,C4H6O2,88.0794,acyclic,,LDHQCZJRKDOVOX-WQIHEVNMSA-N,,,,Identification(5); Physical Data(2),1.0,1.0,71 - 72,H2O,,,,,Article; Affrossman et al.; Journal of the Chemical Society; (1962); p. 3217;,https://www.reaxys.com/reaxys/secured/hopinto.do?context=C&query=CNR.CNR%3D3895984&database=RX&origin=ReaxysOutput&ln=
,N[11CH2]CC(O)=O,2349658.0,https://www.reaxys.com/reaxys/secured/hopinto.do?context=S&query=IDE.XRN%3D2349658&database=RX&origin=ReaxysOutput&ln=,(1632 of 4000),39553-03-2,<3-11C>-β-Alanin; [3-11C]-β-alanine,C2(11)CH7NO2,C3H7NO2,88.0831,acyclic,,UCMIRNVEIXFBKS-JVVVGQRLSA-N,,,,Identification(6); Physical Data(1),1.0,1.0,182 - 183,,,,,,Article; Elias et al.; Chemische Berichte; vol. 105; (1972); p. 3754;,https://www.reaxys.com/reaxys/secured/hopinto.do?context=C&query=CNR.CNR%3D4441682&database=RX&origin=ReaxysOutput&ln=
,CO[Al](C)C,3689324.0,https://www.reaxys.com/reaxys/secured/hopinto.do?context=S&query=IDE.XRN%3D3689324&database=RX&origin=ReaxysOutput&ln=,(1633 of 4000),6063-88-3,methoxydimethylaluminium; Dimethylaluminium-methoxid; Dimethyl-methoxy-aluminium,Al(CH3)2(OCH3),C3H9AlO,88.0854,acyclic; Isotope or isotope containing compound,,BQBCXNQILNPAPX-UHFFFAOYSA-N,,,,Identification(18); Physical Data(9); Spectra(25),58.0,31.0,30 - 32,,,,,,"Article; Mann et al.; Zeitschrift fur Anorganische und Allgemeine Chemie; vol. 398; (1973); p. 231,232,234,237;",https://www.reaxys.com/reaxys/secured/hopinto.do?context=C&query=CNR.CNR%3D4564854&database=RX&origin=ReaxysOutput&ln=
,C1CCPC1,605298.0,https://www.reaxys.com/reaxys/secured/hopinto.do?context=S&query=IDE.XRN%3D605298&database=RX&origin=ReaxysOutput&ln=,(1634 of 4000),3466-00-0,phospholane; bisphospholane,C4H9P,C4H9P,88.0892,heterocyclic,,GWLJTAJEHRYMCA-UHFFFAOYSA-N,,,,Identification(83); Physical Data(6); Spectra(11),14.0,85.0,-88,,,,,,"Article; Burg,A.B.; Slota,P.J.; Journal of the American Chemical Society; vol. 82; (1960); p. 2148 - 2151;",https://www.reaxys.com/reaxys/secured/hopinto.do?context=C&query=CNR.CNR%3D49149&database=RX&origin=ReaxysOutput&ln=
,PCC1CC1,20443264.0,https://www.reaxys.com/reaxys/secured/hopinto.do?context=S&query=IDE.XRN%3D20443264&database=RX&origin=ReaxysOutput&ln=,(1635 of 4000),863975-36-4,cyclopropylmethylphosphine,CH2CH2CHCH2PH2,C4H9P,88.0892,,,FWJIRQKTBXOQGX-UHFFFAOYSA-N,,,,Identification(5); Physical Data(2); Spectra(3),4.0,2.0,88 - 90,,supporting information,,,,"Article; Tavtorkin, Alexander N.; Toloraya, Sofia A.; Nifant'Ev, Eduard E.; Nifant'Ev, Ilya E.; Tetrahedron Letters; vol. 52; 7; (2011); p. 824 - 825;",https://www.reaxys.com/reaxys/secured/hopinto.do?context=C&query=CNR.CNR%3D8993583&database=RX&origin=ReaxysOutput&ln=
,O=S=NC#N,1901744.0,https://www.reaxys.com/reaxys/secured/hopinto.do?context=S&query=IDE.XRN%3D1901744&database=RX&origin=ReaxysOutput&ln=,(1636 of 4000),16342-87-3,Thionylcyanamid; N-Sulfinyl-cyanamid; sulfinyl cyanamide; N-cyano-sulfur imide oxide,NCNSO,CN2OS,88.0898,acyclic,,ZOXORHGWTVOKPB-UHFFFAOYSA-N,,,,Identification(7); Physical Data(2); Spectra(1),4.0,3.0,-37,,,,,,"Article; Scherer,O.J.; Schmitt,R.; Chemische Berichte; vol. 101; 9; (1968); p. 3302 - 3312;; ; Article; Scherer; Schmitt; Angewandte Chemie; vol. 79; (1967); p. 691;",https://www.reaxys.com/reaxys/secured/hopinto.do?context=C&query=CNR.CNR%3D39803&database=RX&origin=ReaxysOutput&ln=
,C1CCOOC1,102503.0,https://www.reaxys.com/reaxys/secured/hopinto.do?context=S&query=IDE.XRN%3D102503&database=RX&origin=ReaxysOutput&ln=,(1637 of 4000),5703-46-8,"[1,2]Dioxan; 1,2-dioxacyclohexane",C4H8O2,C4H8O2,88.1063,heterocyclic,,OIXUJRCCNNHWFI-UHFFFAOYSA-N,,,,Identification(84); Physical Data(10); Spectra(7),6.0,87.0,204,,,,,,Patent; MITSUBISHI CHEMICAL HOLDINGS CORPORATION; US5070103; (1991); A;,https://www.reaxys.com/reaxys/secured/hopinto.do?context=C&query=CNR.CNR%3D120957&database=RX&origin=ReaxysOutput&ln=
,C1COCOC1,102532.0,https://www.reaxys.com/reaxys/secured/hopinto.do?context=S&query=IDE.XRN%3D102532&database=RX&origin=ReaxysOutput&ln=,(1638 of 4000),505-22-6,"1,3-dioxane; dioxane; trans-1,3-dioxane",C4H8O2,C4H8O2,88.1063,heterocyclic,,VDFVNEFVBPFDSB-UHFFFAOYSA-N,,,,Identification(108); Physical Data(163); Spectra(55); Bioactivity(19),127.0,334.0,73.8 - 74.2,,,,,,"Article; Greenhouse; Strauss; Journal of Chemical Physics; vol. 50; (1969); p. 124,129;",https://www.reaxys.com/reaxys/secured/hopinto.do?context=C&query=CNR.CNR%3D3178697&database=RX&origin=ReaxysOutput&ln=
,OC1CCCO1,102535.0,https://www.reaxys.com/reaxys/secured/hopinto.do?context=S&query=IDE.XRN%3D102535&database=RX&origin=ReaxysOutput&ln=,(1639 of 4000),5371-52-8,2-hydroxytetrahydrofuran; tetrahydrofuran-2-ol,HOCHC3H6O,C4H8O2,88.1063,acyclic,,JNODDICFTDYODH-UHFFFAOYSA-N,,,,Identification(166); Physical Data(23); Spectra(40),259.0,293.0,161 - 163,,,,,,Patent; MITSUBISHI CHEMICAL HOLDINGS CORPORATION; Mitsubishi Chemical Corp (in: MCHC Group); EP810221; (1997); A1;,https://www.reaxys.com/reaxys/secured/hopinto.do?context=C&query=CNR.CNR%3D11972&database=RX&origin=ReaxysOutput&ln=