Structure: Image,SMILES,Substance Identification: Reaxys Registry Number,Links to Reaxys,Data Count,CAS Registry Number,Chemical Name,Linear Structure Formula,Molecular Formula,Molecular Weight,Type of Substance,Type and Modification,InChI Key,Composition: Comp. Name,Composition: Comp. Conc.,Composition: Comp. Attrib.,Field Availability,Number of Reactions,Number of References,Melting Point: Melting Point [C],Solvent (Melting Point),Location,Comment (Melting Point),Crystallizes With,Amount (Melting Point) [mol],References,Links to Reaxys.1
,[2H][C@@H]([15NH2])C(O)=O,8899142.0,https://www.reaxys.com/reaxys/secured/hopinto.do?context=S&query=IDE.XRN%3D8899142&database=RX&origin=ReaxysOutput&ln=,(864 of 4000),371759-75-0,,C2H4D(15)NO2,C2H5NO2,77.0526,acyclic,,DHMQDGOQFOQNFH-JMMGCJDKSA-N,,,,Identification(6); Physical Data(1); Spectra(5),3.0,1.0,229 - 231,,,Decomposition,,,"Article; Walker, Joel R; Curley Jr., Robert W; Tetrahedron; vol. 57; 31; (2001); p. 6695 - 6701;",https://www.reaxys.com/reaxys/secured/hopinto.do?context=C&query=CNR.CNR%3D6306820&database=RX&origin=ReaxysOutput&ln=
,NC[14C](O)=O,2073892.0,https://www.reaxys.com/reaxys/secured/hopinto.do?context=S&query=IDE.XRN%3D2073892&database=RX&origin=ReaxysOutput&ln=,(865 of 4000),56-39-3,[1-14C]glycine; <1-14C>glycine; Glycine-(1-(14)C); <1-14C>Glycin,(14)CCH5NO2,C2H5NO2,77.0562,acyclic,,DHMQDGOQFOQNFH-HQMMCQRPSA-N,,,,Identification(10); Physical Data(2),14.0,14.0,231,H2O; ethanol,,,,,"Article; Dubini; Fantechi; Annali di Chimica; vol. 51; (1961); p. 587,591, 592;",https://www.reaxys.com/reaxys/secured/hopinto.do?context=C&query=CNR.CNR%3D3879780&database=RX&origin=ReaxysOutput&ln=
,N[14CH2]C(O)=O,2236934.0,https://www.reaxys.com/reaxys/secured/hopinto.do?context=S&query=IDE.XRN%3D2236934&database=RX&origin=ReaxysOutput&ln=,(866 of 4000),52-64-2,<2-14C>-Glycin; Glycin-2-14C,(14)CCH5NO2,C2H5NO2,77.0562,acyclic,,DHMQDGOQFOQNFH-NJFSPNSNSA-N,,,,Identification(7); Physical Data(1),10.0,11.0,225,,,,,,"Article; Kollenz; Maitz; Monatshefte fur Chemie; vol. 110; (1979); p. 89,93;",https://www.reaxys.com/reaxys/secured/hopinto.do?context=C&query=CNR.CNR%3D4534762&database=RX&origin=ReaxysOutput&ln=
,NC(=O)CF,1739054.0,https://www.reaxys.com/reaxys/secured/hopinto.do?context=S&query=IDE.XRN%3D1739054&database=RX&origin=ReaxysOutput&ln=,(867 of 4000),640-19-7,fluoroacetamide,CH2FCONH2,C2H4FNO,77.0583,acyclic,,FVTWJXMFYOXOKK-UHFFFAOYSA-N,,,,Identification(101); Physical Data(40); Spectra(32); Bioactivity(20),66.0,184.0,106.8 - 108,,,,,,"Article; Dietz, Jule-Philipp; Derstine, Brenden P.; Ferenc, Dorota; Crawford, Evan T.; Arduengo, Anthony J.; Gupton, B. Frank; McQuade, D. Tyler; Opatz, Till; European Journal of Organic Chemistry; vol. 2019; 31-32; (2019); p. 5519 - 5526;",https://www.reaxys.com/reaxys/secured/hopinto.do?context=C&query=CNR.CNR%3D77258733&database=RX&origin=ReaxysOutput&ln=
,[2H]C([2H])([2H])C(=O)NN,18350150.0,https://www.reaxys.com/reaxys/secured/hopinto.do?context=S&query=IDE.XRN%3D18350150&database=RX&origin=ReaxysOutput&ln=,(868 of 4000),1028333-41-6,d3-acetic hydrazide; d3-acetylhydrazine; acetohydrazide-d3; acethydrazide-d3,C2H3(2)H3N2O,C2H6N2O,77.0586,,,OFLXLNCGODUUOT-FIBGUPNXSA-N,,,,Identification(8); Physical Data(2); Spectra(3),11.0,5.0,61 - 64,,,,,,Patent; UNIVERSITY OF NORTH CAROLINA SYSTEM; WO2010/14236; (2010); A2;,https://www.reaxys.com/reaxys/secured/hopinto.do?context=C&query=CNR.CNR%3D8844039&database=RX&origin=ReaxysOutput&ln=
,NCC([18OH])=O,3044180.0,https://www.reaxys.com/reaxys/secured/hopinto.do?context=S&query=IDE.XRN%3D3044180&database=RX&origin=ReaxysOutput&ln=,(869 of 4000),13086-66-3,(18O-Hydroxy)-Glycin; [18O1]glycine,C2H5NO(18)O,C2H5NO2,77.0678,acyclic,,DHMQDGOQFOQNFH-DOMIDYPGSA-N,,,,Identification(6); Physical Data(2); Spectra(1),1.0,2.0,237.5 - 238.5,H2O; methanol,,,,,"Article; Kovacs,J. et al.; Tetrahedron; vol. 25; (1969); p. 2555 - 2573;",https://www.reaxys.com/reaxys/secured/hopinto.do?context=C&query=CNR.CNR%3D89317&database=RX&origin=ReaxysOutput&ln=
,[H]N([H])[H].CC(O)=O,3564799.0,https://www.reaxys.com/reaxys/secured/hopinto.do?context=S&query=IDE.XRN%3D3564799&database=RX&origin=ReaxysOutput&ln=,(870 of 4000),631-61-8,ammonium acetate; NH4OAc; NH4Ac,H3N*C2H4O2,C2H4O2*H3N,77.0831,acyclic,,USFZMSVCRYTOJT-UHFFFAOYSA-N,,,,Identification(195); Physical Data(62); Spectra(22); Bioactivity(98),2093.0,1509.0,114,,,,,,Patent; MITSUBISHI CHEMICAL HOLDINGS CORPORATION; Mitsubishi Chemical Corp (in: MCHC Group); EP1505052; (2005); A1;; ; Article; Shimoyama; Terasaki; Nomoto; Mita; Bulletin of the Chemical Society of Japan; vol. 75; 1; (2002); p. 153 - 154;,https://www.reaxys.com/reaxys/secured/hopinto.do?context=C&query=CNR.CNR%3D360694&database=RX&origin=ReaxysOutput&ln=
,[NH4+].CC([O-])=O,10774525.0,https://www.reaxys.com/reaxys/secured/hopinto.do?context=S&query=IDE.XRN%3D10774525&database=RX&origin=ReaxysOutput&ln=,(871 of 4000),,ammonium acetate; NH4OAc; anhydrous ammonium acetate,NH4(1+)*CH3COO(1-)= NH4OOCCH3,C2H3O2*H4N,77.0831,,,USFZMSVCRYTOJT-UHFFFAOYSA-N,,,,Identification(18166); Physical Data(43); Spectra(6); Bioactivity(927),388.0,18528.0,114,,,,,,Article; Osman; Dakroury; Dessouky; Kenawy; El-Sharkawy; Journal of Thermal Analysis and Calorimetry; vol. 46; 6; (1996); p. 1697 - 1703; (from Gmelin),https://www.reaxys.com/reaxys/secured/hopinto.do?context=C&query=CNR.CNR%3D8251404&database=RX&origin=ReaxysOutput&ln=
,C#CC=CC#N,2424032.0,https://www.reaxys.com/reaxys/secured/hopinto.do?context=S&query=IDE.XRN%3D2424032&database=RX&origin=ReaxysOutput&ln=,(872 of 4000),13086-68-5,β-Ethinyl-acrylnitril,C5H3N,C5H3N,77.0855,acyclic,,ZXFTWPNQZKQCAL-UHFFFAOYSA-N,,,,Identification(6); Physical Data(1); Spectra(4),2.0,1.0,4 - 6,,,,,,"Article; Cava et al.; Tetrahedron Letters; (1966); p. 2947,2948;",https://www.reaxys.com/reaxys/secured/hopinto.do?context=C&query=CNR.CNR%3D3037838&database=RX&origin=ReaxysOutput&ln=
,NC=S=O,1847456.0,https://www.reaxys.com/reaxys/secured/hopinto.do?context=S&query=IDE.XRN%3D1847456&database=RX&origin=ReaxysOutput&ln=,(873 of 4000),40100-17-2; 107840-60-8; 877606-83-2,Thioformamid-S-oxid; Sulfinylmethylamin,CH3NOS,CH3NOS,77.1069,acyclic,,PQOHXXDCXHKGMA-UHFFFAOYSA-N,,,,Identification(6); Physical Data(2),1.0,2.0,96 - 97,acetonitrile,,,,,Patent; Walter; Curts; DE1099526; (1961); B; Chem.Abstr.; vol. 56; 1356; (1962); Chem.Abstr.; vol. 56; 1356; (1962);,https://www.reaxys.com/reaxys/secured/hopinto.do?context=C&query=CNR.CNR%3D3866795&database=RX&origin=ReaxysOutput&ln=
,N[13C](N)=S,2959126.0,https://www.reaxys.com/reaxys/secured/hopinto.do?context=S&query=IDE.XRN%3D2959126&database=RX&origin=ReaxysOutput&ln=,(874 of 4000),113899-66-4,((13)C)-thiourea,(13)CH4N2S,CH4N2S,77.1112,acyclic; Isotope or isotope containing compound,,UMGDCJDMYOKAJW-OUBTZVSYSA-N,,,,Identification(8); Physical Data(2); Spectra(3); Bioactivity(1),8.0,10.0,169 - 171,,,,,,Article; Braun; Metzger; Bulletin de la Societe Chimique de France; (1967); p. 503;,https://www.reaxys.com/reaxys/secured/hopinto.do?context=C&query=CNR.CNR%3D3558645&database=RX&origin=ReaxysOutput&ln=
,NC([15NH2])=S,2959130.0,https://www.reaxys.com/reaxys/secured/hopinto.do?context=S&query=IDE.XRN%3D2959130&database=RX&origin=ReaxysOutput&ln=,(875 of 4000),14742-15-5,<15N>Thioharnstoff; [1-15N]thiourea,CH4N(15)NS,CH4N2S,77.1155,acyclic,,UMGDCJDMYOKAJW-VQEHIDDOSA-N,,,,Identification(6); Physical Data(2); Spectra(2),2.0,2.0,173 - 174,,,,,,Article; Braun; Metzger; Bulletin de la Societe Chimique de France; (1967); p. 503;,https://www.reaxys.com/reaxys/secured/hopinto.do?context=C&query=CNR.CNR%3D3558645&database=RX&origin=ReaxysOutput&ln=
,[H]N([H])[H].CCCO,3664247.0,https://www.reaxys.com/reaxys/secured/hopinto.do?context=S&query=IDE.XRN%3D3664247&database=RX&origin=ReaxysOutput&ln=,(876 of 4000),5908-49-6,propan-1-ol; compound with ammonia; Propan-1-ol; Verbindung mit Ammoniak; propanol amine,C3H7OH*NH3,C3H8O*H3N,77.1264,acyclic,,JMJRNNLOJLYQLM-UHFFFAOYSA-N,,,,Identification(15); Physical Data(3),,14.0,-77.1,,,,,,"Article; Cady; Jones; Journal of Physical Chemistry; vol. 37; (1933); p. 307,308,315;",https://www.reaxys.com/reaxys/secured/hopinto.do?context=C&query=CNR.CNR%3D1355455&database=RX&origin=ReaxysOutput&ln=
,N.CC(C)O,13244230.0,https://www.reaxys.com/reaxys/secured/hopinto.do?context=S&query=IDE.XRN%3D13244230&database=RX&origin=ReaxysOutput&ln=,(877 of 4000),,2-propanolic ammonia; isopropanolic ammonia; monoisopropanol amine; isopropanol amine; methylethanol amine,C3H7OH*NH3,C3H8O*H3N,77.1264,,,KQQCTWHSWXCZHB-UHFFFAOYSA-N,,,,Identification(28); Physical Data(1),1.0,30.0,-71.9,,,,,,"Article; Cady, H. P.; Jones, E. A.; Journal of Physical Chemistry; vol. 37; (1933); p. 303;; ; Article; Gmelin Handbuch der Anorganischen Chemie; vol. N: MVol.2; 5.3, page 494 - 499; (from Gmelin)",https://www.reaxys.com/reaxys/secured/hopinto.do?context=C&query=CNR.CNR%3D7305216&database=RX&origin=ReaxysOutput&ln=
,NCCS,635649.0,https://www.reaxys.com/reaxys/secured/hopinto.do?context=S&query=IDE.XRN%3D635649&database=RX&origin=ReaxysOutput&ln=,(878 of 4000),60-23-1,Cysteamine; 2-aminoethanethiol,NH2(CH2)2SH,C2H7NS,77.1503,acyclic,,UFULAYFCSOUIOV-UHFFFAOYSA-N,,,,Identification(5609); Physical Data(125); Spectra(49); Bioactivity(488),2009.0,6846.0,98 - 100,ethanol,,,,,"Article; Davis et al.; Journal of the American Chemical Society; vol. 91; (1969); p. 97,103;",https://www.reaxys.com/reaxys/secured/hopinto.do?context=C&query=CNR.CNR%3D5289223&database=RX&origin=ReaxysOutput&ln=
,C[S+](C)C,1811612.0,https://www.reaxys.com/reaxys/secured/hopinto.do?context=S&query=IDE.XRN%3D1811612&database=RX&origin=ReaxysOutput&ln=,(879 of 4000),676-84-6,trimethylsulfonium; trimethylsulfonium ion; Trimethylsulfoniumkation,S(CH3)3(1+),C3H9S,77.1705,acyclic,,NRZWQKGABZFFKE-UHFFFAOYSA-N,,,,Identification(80); Physical Data(43); Spectra(11); Bioactivity(4),13.0,72.0,200 - 202,,,,,,"Article; Tien; Journal of the Chinese Chemical Society; vol. 21; (1974); p. II-243,244-253;",https://www.reaxys.com/reaxys/secured/hopinto.do?context=C&query=CNR.CNR%3D4481150&database=RX&origin=ReaxysOutput&ln=
,ClN=C=O,1900895.0,https://www.reaxys.com/reaxys/secured/hopinto.do?context=S&query=IDE.XRN%3D1900895&database=RX&origin=ReaxysOutput&ln=,(880 of 4000),13858-09-8,chlorine isocyanate; Chlorisocyanat,OCNCl,CClNO,77.4701,acyclic,,IDKXMGZRWKCTGA-UHFFFAOYSA-N,,,,Identification(10); Physical Data(22); Spectra(14),33.0,45.0,-98.5,,,,,,"Article; Nachbaur; Gottardi; Monatshefte fur Chemie; vol. 97; (1966); p. 115,118, 120;",https://www.reaxys.com/reaxys/secured/hopinto.do?context=C&query=CNR.CNR%3D3906354&database=RX&origin=ReaxysOutput&ln=
,ClN=N#N,13638640.0,https://www.reaxys.com/reaxys/secured/hopinto.do?context=S&query=IDE.XRN%3D13638640&database=RX&origin=ReaxysOutput&ln=,(881 of 4000),13973-88-1,chlorine azide; azido chloride; chlorazide; chloro-azide,ClN3,ClN3,77.4731,,,ZGNIYAPHJAPRMA-UHFFFAOYSA-N,,,,Identification(18); Physical Data(17); Spectra(12),60.0,96.0,-100,,,,,,"Article; Frierson, W. J.; Konrad, J.; Browne, J. W.; Journal of the American Chemical Society; vol. 65; (1943); p. 1696 - 1698;; ; Article; Gmelin Handbuch der Anorganischen Chemie; vol. Cl: SVol.B2; 77, page 488 - 489; (from Gmelin)",https://www.reaxys.com/reaxys/secured/hopinto.do?context=C&query=CNR.CNR%3D7515617&database=RX&origin=ReaxysOutput&ln=
,ClN1CC1,102401.0,https://www.reaxys.com/reaxys/secured/hopinto.do?context=S&query=IDE.XRN%3D102401&database=RX&origin=ReaxysOutput&ln=,(882 of 4000),10165-13-6,N-Chlor-aziridin,C2H4ClN,C2H4ClN,77.5135,heterocyclic,,VJVCZFNMCHLMKC-UHFFFAOYSA-N,,,,Identification(17); Physical Data(6); Spectra(13),5.0,17.0,70 - 70.5,,,,,,"Article; Gassman,P.G. et al.; Journal of the American Chemical Society; vol. 92; (1970); p. 2084 - 2090;",https://www.reaxys.com/reaxys/secured/hopinto.do?context=C&query=CNR.CNR%3D61596&database=RX&origin=ReaxysOutput&ln=
,CC(Cl)=N,1733360.0,https://www.reaxys.com/reaxys/secured/hopinto.do?context=S&query=IDE.XRN%3D1733360&database=RX&origin=ReaxysOutput&ln=,(883 of 4000),4481-15-6,acetimidoyl chloride; ethanimidoyl chloride; chlorenamine,C2H4ClN,C2H4ClN,77.5135,acyclic,,TZUYFNORLRBWLP-UHFFFAOYSA-N,,,,Identification(6); Physical Data(1),2.0,3.0,84 - 86,,,,,,Patent; DUPONT DE NEMOURS INC; EP397345; (1990); A1;,https://www.reaxys.com/reaxys/secured/hopinto.do?context=C&query=CNR.CNR%3D7089749&database=RX&origin=ReaxysOutput&ln=
,CN=CCl,1733374.0,https://www.reaxys.com/reaxys/secured/hopinto.do?context=S&query=IDE.XRN%3D1733374&database=RX&origin=ReaxysOutput&ln=,(884 of 4000),97925-82-1,N-methyl-formimidoyl chloride; Chlormethylen-methyl-amin,C2H4ClN,C2H4ClN,77.5135,acyclic,,JZOQMHXMLBFRDB-UHFFFAOYSA-N,,,,Identification(5); Physical Data(2),3.0,2.0,75 - 80,,,,,,"Article; Hall,D. et al.; Journal of the Chemical Society A: Inorganic, Physical, Theoretical; (1967); p. 1612 - 1615;; ; Article; Bosshard; Zollinger; Helvetica Chimica Acta; vol. 42; (1959); p. 1659,1668;",https://www.reaxys.com/reaxys/secured/hopinto.do?context=C&query=CNR.CNR%3D309230&database=RX&origin=ReaxysOutput&ln=
,Cl[H].CC#N,3667027.0,https://www.reaxys.com/reaxys/secured/hopinto.do?context=S&query=IDE.XRN%3D3667027&database=RX&origin=ReaxysOutput&ln=,(885 of 4000),73233-19-9,MeCN*HCl; acetonitrile; hydrochloride,CH3CN*HCl=(CH3CN)HCl,C2H3N*ClH,77.5135,acyclic; Coordination compound,,PWUBONDMIMDOQY-UHFFFAOYSA-N,,,,Identification(11); Physical Data(4); Spectra(1),4.0,13.0,-63,,,,,,"Article; Murray; Schneider; Canadian Journal of Chemistry; vol. 33; (1955); p. 797,799;",https://www.reaxys.com/reaxys/secured/hopinto.do?context=C&query=CNR.CNR%3D1178642&database=RX&origin=ReaxysOutput&ln=
,COP.[H]B([H])[H],15912776.0,https://www.reaxys.com/reaxys/secured/hopinto.do?context=S&query=IDE.XRN%3D15912776&database=RX&origin=ReaxysOutput&ln=,(886 of 4000),,,(CH3O)H2P*BH3,BH3*CH5OP,77.8587,,,IMJGWPUNMYVXJU-UHFFFAOYSA-N,,,,Identification(5); Physical Data(1),,2.0,-36,,,,,,"Article; Wiberg, E.; Mueller-Schiedmayer, G.; Zeitschrift fur Anorganische und Allgemeine Chemie; Zeitschrift fuer Anorganische und Allgemeine Chemie; vol. 308; (1961); p. 352 - 368;; ; Article; Gmelin Handbuch der Anorganischen Chemie; vol. B: B-Verb.3; 6.5.1, page 117 - 129; (from Gmelin)",https://www.reaxys.com/reaxys/secured/hopinto.do?context=C&query=CNR.CNR%3D7464102&database=RX&origin=ReaxysOutput&ln=
,CCB(F)F,1731548.0,https://www.reaxys.com/reaxys/secured/hopinto.do?context=S&query=IDE.XRN%3D1731548&database=RX&origin=ReaxysOutput&ln=,(887 of 4000),430-41-1,ethyl-difluoro-borane; Difluor-ethyl-boran; Ethyl-bor-difluorid; Ethyldifluorboran,BF2CH2CH3,C2H5BF2,77.8695,acyclic,,LYUQNYXHNCJGBN-UHFFFAOYSA-N,,,,Identification(8); Physical Data(18); Spectra(28),42.0,69.0,100,,,,,,"Article; Holliday; Taylor; Journal of the Chemical Society; (1964); p. 2731,2733;",https://www.reaxys.com/reaxys/secured/hopinto.do?context=C&query=CNR.CNR%3D4411264&database=RX&origin=ReaxysOutput&ln=
,[Li+].C[B-](C)(C)C,4149031.0,https://www.reaxys.com/reaxys/secured/hopinto.do?context=S&query=IDE.XRN%3D4149031&database=RX&origin=ReaxysOutput&ln=,(888 of 4000),2169-38-2,lithium tetramethylborate(1-); Lithiumtetramethylboranat; Lithium-tetramethylborat,Li(1+)*B(CH3)4(1-)=LiB(CH3)4,C4H12B*Li,77.8913,acyclic; Coordination compound,,KPHHOTYREBHVCJ-UHFFFAOYSA-N,,,,Identification(9); Physical Data(13); Spectra(43),16.0,33.0,189,,,,,,Article; Groves et al.; Journal of the American Chemical Society; vol. 93; (1971); p. 1553;,https://www.reaxys.com/reaxys/secured/hopinto.do?context=C&query=CNR.CNR%3D4113277&database=RX&origin=ReaxysOutput&ln=
,CP(=O)=O,2231979.0,https://www.reaxys.com/reaxys/secured/hopinto.do?context=S&query=IDE.XRN%3D2231979&database=RX&origin=ReaxysOutput&ln=,(891 of 4000),16284-67-6,Methylphosphonsaeure-anhydrid,CH3O2P,CH3O2P,78.0074,acyclic,,OFSFQGSFEXXHNH-UHFFFAOYSA-N,,,,Identification(8); Physical Data(2); Spectra(1),10.0,9.0,124 - 126,,,,,,"Patent; WNJJ Phytopathol.; SU474536; (1976); A1; Ref. Zh., Khim.; vol. 1; N110; (1977); Ref. Zh., Khim.; vol. 1; N110; (1977);",https://www.reaxys.com/reaxys/secured/hopinto.do?context=C&query=CNR.CNR%3D4212470&database=RX&origin=ReaxysOutput&ln=
,[2H]C([2H])(O)C(O)=O,1753761.0,https://www.reaxys.com/reaxys/secured/hopinto.do?context=S&query=IDE.XRN%3D1753761&database=RX&origin=ReaxysOutput&ln=,(892 of 4000),75502-10-2,"Glycol-d(2)-Saeure; Glykolsaeure-D2; α,α-Dideuterioglykolsaeure; α,α-Dideuteroglykolsaeure; 2,2-dideuterio-2-hydroxy-acetic acid; 2,2-Dideuterio-2-hydroxy-essigsaeure",C2H2D2O3,C2H4O3,78.0361,acyclic,,AEMRFAOFKBGASW-DICFDUPASA-N,,,,Identification(7); Physical Data(2); Spectra(2),6.0,8.0,76 - 78,,,,,,"Article; Hasan; Rocek; Journal of the American Chemical Society; vol. 97; (1975); p. 1444,1450;",https://www.reaxys.com/reaxys/secured/hopinto.do?context=C&query=CNR.CNR%3D4194611&database=RX&origin=ReaxysOutput&ln=
,OC(=O)CF,1739053.0,https://www.reaxys.com/reaxys/secured/hopinto.do?context=S&query=IDE.XRN%3D1739053&database=RX&origin=ReaxysOutput&ln=,(893 of 4000),144-49-0,Fluoroacetic acid,CH2FCO2H,C2H3FO2,78.043,acyclic,,QEWYKACRFQMRMB-UHFFFAOYSA-N,,,,Identification(197); Physical Data(94); Spectra(31); Bioactivity(31),190.0,404.0,31 - 32,,,,,,"Article; Grakauskas,V.; Journal of Organic Chemistry; vol. 34; 8; (1969); p. 2446 - 2450;",https://www.reaxys.com/reaxys/secured/hopinto.do?context=C&query=CNR.CNR%3D183919&database=RX&origin=ReaxysOutput&ln=
,CC(=O)OF,3535473.0,https://www.reaxys.com/reaxys/secured/hopinto.do?context=S&query=IDE.XRN%3D3535473&database=RX&origin=ReaxysOutput&ln=,(894 of 4000),78948-09-1,acetyl hypofluorite,CH3COOF,C2H3FO2,78.043,acyclic,,QWLICVXJMVMDDQ-UHFFFAOYSA-N,,,,Identification(49); Physical Data(1); Spectra(10),146.0,82.0,-96,,,,,,"Article; Appelman, Evan H.; Mendelsohn, Marshall H.; Kim, Hyunyong; Journal of the American Chemical Society; vol. 107; 23; (1985); p. 6515 - 6518;",https://www.reaxys.com/reaxys/secured/hopinto.do?context=C&query=CNR.CNR%3D5763735&database=RX&origin=ReaxysOutput&ln=
,NC(=O)NF,1849230.0,https://www.reaxys.com/reaxys/secured/hopinto.do?context=S&query=IDE.XRN%3D1849230&database=RX&origin=ReaxysOutput&ln=,(895 of 4000),31775-57-2,N-fluorourea; Fluorharnstoff; monofluorourea,NHFNH2CO,CH3FN2O,78.046,acyclic,,HSZCIIHXQDBPOI-UHFFFAOYSA-N,,,,Identification(8); Physical Data(2); Spectra(7),9.0,6.0,56 - 57,CH2Cl2,,,,,"Article; Grakauskas,V.; Baum,K.; Journal of the American Chemical Society; vol. 92; (1970); p. 2096 - 2100;",https://www.reaxys.com/reaxys/secured/hopinto.do?context=C&query=CNR.CNR%3D61598&database=RX&origin=ReaxysOutput&ln=
,C[PH](C)=O,506011.0,https://www.reaxys.com/reaxys/secured/hopinto.do?context=S&query=IDE.XRN%3D506011&database=RX&origin=ReaxysOutput&ln=,(896 of 4000),7211-39-4,dimethyl phosphine oxide; methylphosphonoylmethane; dimethylphosphinoxide; dimethyl-λ5-phosphanone,HPO(CH3)2,C2H7OP,78.0507,acyclic,,HGDIHUZVQPKSMO-UHFFFAOYSA-N,,,,Identification(74); Physical Data(39); Spectra(28),396.0,235.0,40,,supporting information,,,,"Article; Kendall, Alexander J.; Seidenkranz, Daniel T.; Tyler, David R.; Organometallics; vol. 36; 13; (2017); p. 2412 - 2417;",https://www.reaxys.com/reaxys/secured/hopinto.do?context=C&query=CNR.CNR%3D71603317&database=RX&origin=ReaxysOutput&ln=
,CC=C(F)F,1734806.0,https://www.reaxys.com/reaxys/secured/hopinto.do?context=S&query=IDE.XRN%3D1734806&database=RX&origin=ReaxysOutput&ln=,(897 of 4000),430-63-7,"1,1-difluoropropene; 1,1-Difluor-propen; 1,1-difluoro-1-propene",CH3CHCF2,C3H4F2,78.0616,acyclic,,YHLIEGBCOUQKHU-UHFFFAOYSA-N,,,,Identification(19); Physical Data(7); Spectra(23),44.0,34.0,-160.9,,,,,,Article; Henne; Waalkes; Journal of the American Chemical Society; vol. 68; (1946); p. 496;,https://www.reaxys.com/reaxys/secured/hopinto.do?context=C&query=CNR.CNR%3D1333303&database=RX&origin=ReaxysOutput&ln=