Structure: Image,SMILES,Substance Identification: Reaxys Registry Number,Links to Reaxys,Data Count,CAS Registry Number,Chemical Name,Linear Structure Formula,Molecular Formula,Molecular Weight,Type of Substance,Type and Modification,InChI Key,Composition: Comp. Name,Composition: Comp. Conc.,Composition: Comp. Attrib.,Field Availability,Number of Reactions,Number of References,Melting Point: Melting Point [C],Solvent (Melting Point),Location,Comment (Melting Point),Crystallizes With,Amount (Melting Point) [mol],References,Links to Reaxys.1
,[H][C@@]([2H])(O)C(C)(C)C,1839702.0,https://www.reaxys.com/reaxys/secured/hopinto.do?context=S&query=IDE.XRN%3D1839702&database=RX&origin=ReaxysOutput&ln=,(1801 of 4000),13401-44-0,(S)-(+)-neopentyl-1-d alcohol; (S)-Neopentyl-1-d-alkohol,C5H11DO,C5H12O,89.1417,acyclic,,KPSSIOMAKSHJJG-VGERMBTCSA-N,,,,Identification(12); Physical Data(4),8.0,7.0,53,,,,,,"Article; Anderson et al.; Journal of the American Chemical Society; vol. 96; (1974); p. 3171,3176;",https://www.reaxys.com/reaxys/secured/hopinto.do?context=C&query=CNR.CNR%3D4285566&database=RX&origin=ReaxysOutput&ln=
,[2H][C@@H](O)C(C)(C)C,1918617.0,https://www.reaxys.com/reaxys/secured/hopinto.do?context=S&query=IDE.XRN%3D1918617&database=RX&origin=ReaxysOutput&ln=,(1802 of 4000),14207-74-0,"(R)-2,2-Dimethylpropanol-d1; (R)-1-deuterio-2,2-dimethyl-propan-1-ol",C5H11DO,C5H12O,89.1417,acyclic,,KPSSIOMAKSHJJG-MOTOZDKKSA-N,,,,Identification(9); Physical Data(1); Spectra(1),2.0,2.0,53 - 54.2,,,,,,"Article; Weiss,R.G.; Snyder,E.I.; Journal of Organic Chemistry; vol. 36; (1971); p. 403 - 406;",https://www.reaxys.com/reaxys/secured/hopinto.do?context=C&query=CNR.CNR%3D185429&database=RX&origin=ReaxysOutput&ln=
,C1CSCN1,102469.0,https://www.reaxys.com/reaxys/secured/hopinto.do?context=S&query=IDE.XRN%3D102469&database=RX&origin=ReaxysOutput&ln=,(1803 of 4000),504-78-9,"1,3-thiazolidine; thiazolidine; tetrahydrothiazole",C3H6NHS,C3H7NS,89.1613,heterocyclic,,OGYGFUAIIOPWQD-UHFFFAOYSA-N,,,,Identification(850); Physical Data(37); Spectra(24); Bioactivity(61),366.0,1110.0,105 - 107,,,,,,Patent; UNIVERSITY OF DELAWARE; UNIVERSITY PATENTS; US4617389; (1986); A;,https://www.reaxys.com/reaxys/secured/hopinto.do?context=C&query=CNR.CNR%3D7111009&database=RX&origin=ReaxysOutput&ln=
,CCC(N)=S,1098404.0,https://www.reaxys.com/reaxys/secured/hopinto.do?context=S&query=IDE.XRN%3D1098404&database=RX&origin=ReaxysOutput&ln=,(1804 of 4000),631-58-3,thiopropanamide; propanethioamide; thiopropionamide,CH3CSNH2CH2,C3H7NS,89.1613,acyclic,,WPZSAUFQHYFIPG-UHFFFAOYSA-N,,,,Identification(26); Physical Data(19); Spectra(18),120.0,121.0,40 - 41,,supporting information,,,,"Article; Xu, Tao; Cuyamendous, Claire; Brown, Sarah L.; Andreassend, Sarah K.; Cumming, Hemi; Evans, Gary B.; Teesdale-Spittle, Paul H.; Harvey, Joanne E.; Tetrahedron; vol. 88; (2021);",https://www.reaxys.com/reaxys/secured/hopinto.do?context=C&query=CNR.CNR%3D84048738&database=RX&origin=ReaxysOutput&ln=
,CNC(C)=S,1736661.0,https://www.reaxys.com/reaxys/secured/hopinto.do?context=S&query=IDE.XRN%3D1736661&database=RX&origin=ReaxysOutput&ln=,(1805 of 4000),5310-10-1,N-methylthioacetamide,C3H7NS,C3H7NS,89.1613,acyclic,,BNLLHLUAOXAUNQ-UHFFFAOYSA-N,,,,Identification(34); Physical Data(30); Spectra(34),51.0,90.0,52 - 53,hexane; dichloromethane,,,,,"Article; Song, Shuyi; Hyodo, Tadashi; Ikeda, Hirotaka; Vu, Kim Anh L.; Tang, Yulan; Chan, Erika S.; Otani, Yuko; Inagaki, Satoshi; Yamaguchi, Kentaro; Ohwada, Tomohiko; Journal of Organic Chemistry; vol. 87; 3; (2022); p. 1641 - 1660;",https://www.reaxys.com/reaxys/secured/hopinto.do?context=C&query=CNR.CNR%3D92557557&database=RX&origin=ReaxysOutput&ln=
,CN(C)C=S,1737191.0,https://www.reaxys.com/reaxys/secured/hopinto.do?context=S&query=IDE.XRN%3D1737191&database=RX&origin=ReaxysOutput&ln=,(1806 of 4000),758-16-7,"N,N-dimethylthioformamide; dimethylthioformamide; N,N-dimethylmethanethioamide; dmtf",HC(S)N(CH3)2,C3H7NS,89.1613,acyclic,,SKECXRFZFFAANN-UHFFFAOYSA-N,,,,Identification(101); Physical Data(116); Spectra(49); Bioactivity(18),347.0,324.0,-8.5,,,,,,Article; Diggle; Bogsanyi; Journal of Physical Chemistry; vol. 78; (1974); p. 1018;,https://www.reaxys.com/reaxys/secured/hopinto.do?context=C&query=CNR.CNR%3D4851423&database=RX&origin=ReaxysOutput&ln=
,[SiH3]N=C=S,1735647.0,https://www.reaxys.com/reaxys/secured/hopinto.do?context=S&query=IDE.XRN%3D1735647&database=RX&origin=ReaxysOutput&ln=,(1807 of 4000),14311-54-7,isothiocyanatosilane; Silylisothiocyanat,SiH3NCS,CH3NSSi,89.193,acyclic,,WDQDMOPZMLEJKT-UHFFFAOYSA-N,,,,Identification(10); Physical Data(16); Spectra(23),8.0,41.0,-51.8,,,,,,"Article; MacDiarmid; Journal of Inorganic and Nuclear Chemistry; vol. 2; (1956); p. 88,89,93;",https://www.reaxys.com/reaxys/secured/hopinto.do?context=C&query=CNR.CNR%3D1492963&database=RX&origin=ReaxysOutput&ln=
,C[Si](C)(C)N,1918140.0,https://www.reaxys.com/reaxys/secured/hopinto.do?context=S&query=IDE.XRN%3D1918140&database=RX&origin=ReaxysOutput&ln=,(1808 of 4000),7379-79-5,trimethylsilyl amine; trimethylsilylnitrene; TMSCHN2; N-trimethylsilyl amine; trimethyl-aminosilane,Si(CH3)3NH2,C3H11NSi,89.2125,acyclic,,KOOADCGQJDGAGA-UHFFFAOYSA-N,,,,Identification(36); Physical Data(3); Spectra(3),21.0,56.0,-90,,,,,,"Article; Wiberg,N.; Uhlenbrock,W.; Chemische Berichte; vol. 104; (1971); p. 2643 - 2645;",https://www.reaxys.com/reaxys/secured/hopinto.do?context=C&query=CNR.CNR%3D41039&database=RX&origin=ReaxysOutput&ln=
,ClC(=O)C#N,1740232.0,https://www.reaxys.com/reaxys/secured/hopinto.do?context=S&query=IDE.XRN%3D1740232&database=RX&origin=ReaxysOutput&ln=,(1810 of 4000),4474-17-3,Cyanformylchlorid; oxalic acid-chloride nitrile; Oxalsaeure-chlorid-nitril,C2ClNO,C2ClNO,89.4811,acyclic,,HBIBICXXPWQKPL-UHFFFAOYSA-N,,,,Identification(8); Physical Data(3); Spectra(2),11.0,6.0,-89,,,,,,"Article; Appel, Rolf; Siray, Mustafa; Angewandte Chemie; vol. 95; 10; (1983); p. 807;",https://www.reaxys.com/reaxys/secured/hopinto.do?context=C&query=CNR.CNR%3D5624417&database=RX&origin=ReaxysOutput&ln=
,ClCCC#N,1098454.0,https://www.reaxys.com/reaxys/secured/hopinto.do?context=S&query=IDE.XRN%3D1098454&database=RX&origin=ReaxysOutput&ln=,(1811 of 4000),542-76-7,3-Chloropropionitrile,ClCH2CH2CN,C3H4ClN,89.5245,acyclic,,GNHMRTZZNHZDDM-UHFFFAOYSA-N,,,,Identification(58); Physical Data(77); Spectra(23); Bioactivity(22),294.0,358.0,-51.45,,,,,,Article; Witschonke; Analytical Chemistry; vol. 26; (1954); p. 562;,https://www.reaxys.com/reaxys/secured/hopinto.do?context=C&query=CNR.CNR%3D609866&database=RX&origin=ReaxysOutput&ln=
,CC(Cl)C#N,1736658.0,https://www.reaxys.com/reaxys/secured/hopinto.do?context=S&query=IDE.XRN%3D1736658&database=RX&origin=ReaxysOutput&ln=,(1812 of 4000),1617-17-0,2-chlorpropionitrile; 2-chloropropionitrile; 2-chloropropanenitrile; α-chloropropionitrile; beta-chloropropionitrile,CHClCH3CN,C3H4ClN,89.5245,acyclic,,JNAYPRPPXRWGQO-UHFFFAOYSA-N,,,,Identification(30); Physical Data(34); Spectra(9); Bioactivity(9),179.0,165.0,132,,,,,,Patent; TAKEDA PHARMACEUTICAL COMPANY LIMITED; WO2005/30768; (2005); A1;,https://www.reaxys.com/reaxys/secured/hopinto.do?context=C&query=CNR.CNR%3D8821000&database=RX&origin=ReaxysOutput&ln=
,FB(F)CC=C,2408709.0,https://www.reaxys.com/reaxys/secured/hopinto.do?context=S&query=IDE.XRN%3D2408709&database=RX&origin=ReaxysOutput&ln=,(1815 of 4000),819-69-2,monoallylboron difluoride; allyl(difluoro)borane; Difluor-allyl-boran; Allylborfluorid; 2-propenyldifluoroborane,CH2CHCH2BF2,C3H5BF2,89.8805,acyclic,,DZPYCXVIFCNJRJ-UHFFFAOYSA-N,,,,Identification(6); Physical Data(8); Spectra(17),9.0,7.0,-154.7,,,,,,"Article; Brinckman,F.E.; Stone,F.G.A.; Journal of the American Chemical Society; vol. 82; (1960); p. 6218 - 6223;",https://www.reaxys.com/reaxys/secured/hopinto.do?context=C&query=CNR.CNR%3D50047&database=RX&origin=ReaxysOutput&ln=
,[H]B([H])[H].CP(C)C,3663852.0,https://www.reaxys.com/reaxys/secured/hopinto.do?context=S&query=IDE.XRN%3D3663852&database=RX&origin=ReaxysOutput&ln=,(1817 of 4000),,trimethylphosphine-borane; Trimethylphosphin-boran-Komplex,P(CH3)3*BH3,BH3*C3H9P,89.913,acyclic; Coordination compound,,XDZLUCBMKWYLJG-UHFFFAOYSA-N,,,,Identification(9); Physical Data(8); Spectra(42),49.0,58.0,101,,,,,,"Article; Busacca, Carl A.; Raju, Ravinder; Grinberg, Nelu; Haddad, Nizar; James-Jones, Paul; Lee, Heewon; Lorenz, Jon C.; Saha, Anjan; Senanayake, Chris H.; Journal of Organic Chemistry; vol. 73; 4; (2008); p. 1524 - 1531;",https://www.reaxys.com/reaxys/secured/hopinto.do?context=C&query=CNR.CNR%3D7077270&database=RX&origin=ReaxysOutput&ln=
,[Li+].N#C[P-]C#N,39498490.0,https://www.reaxys.com/reaxys/secured/hopinto.do?context=S&query=IDE.XRN%3D39498490&database=RX&origin=ReaxysOutput&ln=,(1818 of 4000),,,Li(1+)*C2N2P(1-),C2N2P*Li,89.9502,,,XKQSMEAENNICQF-UHFFFAOYSA-N,,,,Identification(6); Physical Data(1); Spectra(7),8.0,1.0,244,,supporting information,with decomposition,"1,4-dioxane",1.1,"Article; Liu, Liu Leo; Mei, Yanbo; Yan, Zeen; Journal of the American Chemical Society; vol. 144; 4; (2022); p. 1517 - 1522;",https://www.reaxys.com/reaxys/secured/hopinto.do?context=C&query=CNR.CNR%3D115480776&database=RX&origin=ReaxysOutput&ln=
,[H][N+]([H])([H])[H].[H]N([H])[B-](C)(C)C,15903290.0,https://www.reaxys.com/reaxys/secured/hopinto.do?context=S&query=IDE.XRN%3D15903290&database=RX&origin=ReaxysOutput&ln=,(1819 of 4000),,,NH4(1+)*{B(CH3)3NH2}(1-)=NH4{B(CH3)3NH2},C3H11BN*H4N,89.9765,,,UWALPIOAJOLWSD-UHFFFAOYSA-O,,,,Identification(5); Physical Data(1),,2.0,-43,,,with decomposition; 24 Torr,,,"Article; Burg, A. B.; Journal of the American Chemical Society; vol. 62; (1940); p. 2228 - 2234;; ; Article; Gmelin Handbuch der Anorganischen Chemie; vol. B: SVol.1; 4.9, page 235 - 238; (from Gmelin)",https://www.reaxys.com/reaxys/secured/hopinto.do?context=C&query=CNR.CNR%3D7304835&database=RX&origin=ReaxysOutput&ln=
,OC(=O)C(O)=O,385686.0,https://www.reaxys.com/reaxys/secured/hopinto.do?context=S&query=IDE.XRN%3D385686&database=RX&origin=ReaxysOutput&ln=,(1821 of 4000),144-62-7,oxalic acid,[HOC(O)C(O)OH],C2H2O4,90.0355,acyclic,,MUBZPKHOEPUJKR-UHFFFAOYSA-N,,,,Identification(23448); Physical Data(1437); Spectra(204); Bioactivity(1751),13376.0,32481.0,189,,,,,,"Article; Shevchenko, Anna; Miroshnyk, Inna; Pietilae, Lars-Olof; Haarala, Jorma; Salmia, Jukka; Sinervo, Kai; Mirza, Sabiruddin; Van Veen, Bert; Kolehmainen, Erkki; Nonappa; Yliruusi, Jouko; Crystal Growth and Design; vol. 13; 11; (2013); p. 4877 - 4884;; ; Article; Hu, Yun; Gniado, Katarzyna; Erxleben, Andrea; McArdle, Patrick; Crystal Growth and Design; vol. 14; 2; (2014); p. 803 - 813;; ; Article; Surov, Artem O.; Voronin, Alexander P.; Simagina, Anna A.; Churakov, Andrei V.; Perlovich, German L.; Crystal Growth and Design; vol. 16; 5; (2016); p. 2605 - 2617;; ; Article; Zhorin; Kiselev; Roldugin; Russian Journal of Physical Chemistry; vol. 91; 11; (2017); p. 2070 - 2077; Zh. Fiz. Khim.; vol. 91; 11; (2017); p. 1828 - 1836,9;; ; Article; Boycov, Denis E.; Churakov, Andrei V.; Drozd, Ksenia V.; Manin, Alex N.; Perlovich, German L.; Crystal Growth and Design; vol. 21; 12; (2021); p. 7285 - 7297;",https://www.reaxys.com/reaxys/secured/hopinto.do?context=C&query=CNR.CNR%3D61929965&database=RX&origin=ReaxysOutput&ln=
,[H+].[O-]C(=O)C([O-])=O,13245312.0,https://www.reaxys.com/reaxys/secured/hopinto.do?context=S&query=IDE.XRN%3D13245312&database=RX&origin=ReaxysOutput&ln=,(1822 of 4000),,dihydrogen oxalate; oxalic acid; hydrogen Oxalate,2H(1+)*C2O4(2-) = H2C2O4,C2O4*2H,90.0355,,,MUBZPKHOEPUJKR-UHFFFAOYSA-M,,,,Identification(64); Physical Data(48); Spectra(8),48.0,120.0,154 - 156,,,,,,Patent; Novartis (w/o Sandoz); NOVARTIS AG; US5747506; (1998); A;; ; Patent; MERCK &amp; CO INC; US6187805; (2001); B1;,https://www.reaxys.com/reaxys/secured/hopinto.do?context=C&query=CNR.CNR%3D98732&database=RX&origin=ReaxysOutput&ln=
,ON(=O)=CN=O,1701171.0,https://www.reaxys.com/reaxys/secured/hopinto.do?context=S&query=IDE.XRN%3D1701171&database=RX&origin=ReaxysOutput&ln=,(1824 of 4000),,methylnitrolic acid; Methylnitrolsaeure,CH2N2O3,CH2N2O3,90.0385,acyclic,,HSNFGWNEQBZXIU-UHFFFAOYSA-N,,,,Identification(5); Physical Data(5),22.0,9.0,64 - 66,,,Decomp.,,,"Article; Austin; Journal of the Chemical Society; (1950); p. 149,152,156;",https://www.reaxys.com/reaxys/secured/hopinto.do?context=C&query=CNR.CNR%3D1175083&database=RX&origin=ReaxysOutput&ln=
,O=CNN(=O)=O,2636385.0,https://www.reaxys.com/reaxys/secured/hopinto.do?context=S&query=IDE.XRN%3D2636385&database=RX&origin=ReaxysOutput&ln=,(1825 of 4000),51883-27-3,N nitrocarboxamide; nitroformamide,CH2N2O3,CH2N2O3,90.0385,acyclic,,MGWINGMOAQGIBA-UHFFFAOYSA-N,,,,Identification(7); Physical Data(1); Spectra(1),1.0,2.0,44,CH2Cl2,,,,,"Article; Andreev,S.A. et al.; Journal of Organic Chemistry USSR (English Translation); vol. 14; (1978); p. 2316 - 2319; Zhurnal Organicheskoi Khimii; vol. 14; 12; (1978); p. 2513 - 2516;",https://www.reaxys.com/reaxys/secured/hopinto.do?context=C&query=CNR.CNR%3D282038&database=RX&origin=ReaxysOutput&ln=
,OC(=O)C(F)=C,1740580.0,https://www.reaxys.com/reaxys/secured/hopinto.do?context=S&query=IDE.XRN%3D1740580&database=RX&origin=ReaxysOutput&ln=,(1826 of 4000),430-99-9,2-fluoroacrylic acid; 2-fluoroprop-2-enoic acid; α-Fluoracrylsaeure; α-fluoroacrylic acid,CH2CFCOOH,C3H3FO2,90.054,acyclic,,TYCFGHUTYSLISP-UHFFFAOYSA-N,,,,Identification(74); Physical Data(10); Spectra(10),256.0,158.0,51,,,,,,"Article; Gault; Bouvier; Comptes Rendus des Seances de l'Academie des Sciences, Serie C: Sciences Chimiques; vol. 268; (1969); p. 354,355-357; Chem.Abstr.; vol. 70; 105896v; (1969);",https://www.reaxys.com/reaxys/secured/hopinto.do?context=C&query=CNR.CNR%3D4214368&database=RX&origin=ReaxysOutput&ln=
,OC(=O)\C=C\F,2070806.0,https://www.reaxys.com/reaxys/secured/hopinto.do?context=S&query=IDE.XRN%3D2070806&database=RX&origin=ReaxysOutput&ln=,(1827 of 4000),92593-14-1,trans-3-fluoropropenoic acid; 3-fluoroacrylic acid,C3H3FO2,C3H3FO2,90.054,acyclic,,VNBVGNOFNYFYIO-OWOJBTEDSA-N,,,,Identification(9); Physical Data(2); Spectra(8),3.0,4.0,40.9 - 41.7,,,,,,"Article; Nguyen, Thoai; Leroy, Jacques; Wakselman, Claude; Journal of Organic Chemistry; vol. 58; 14; (1993); p. 3772 - 3774;",https://www.reaxys.com/reaxys/secured/hopinto.do?context=C&query=CNR.CNR%3D5815271&database=RX&origin=ReaxysOutput&ln=
,O\C=C(/F)C=O,2425184.0,https://www.reaxys.com/reaxys/secured/hopinto.do?context=S&query=IDE.XRN%3D2425184&database=RX&origin=ReaxysOutput&ln=,(1828 of 4000),54422-81-0,fluoromalonaldehyde (Z)-enol tautomer; (Z)-2-fluoro-3-hydroxy-propenal,C3H3FO2,C3H3FO2,90.054,acyclic,,XOUSDMBVVQUQEM-IWQZZHSRSA-N,,,,Identification(5); Physical Data(1); Spectra(2),1.0,1.0,99 - 101,,,,,,"Article; Reichardt,C.; Halbritter,K.; Justus Liebigs Annalen der Chemie; vol. 737; (1970); p. 99 - 107;",https://www.reaxys.com/reaxys/secured/hopinto.do?context=C&query=CNR.CNR%3D79146&database=RX&origin=ReaxysOutput&ln=
,OC[14C]#[14C]CO,1903982.0,https://www.reaxys.com/reaxys/secured/hopinto.do?context=S&query=IDE.XRN%3D1903982&database=RX&origin=ReaxysOutput&ln=,(1829 of 4000),89268-41-7,"2-Butin-1,4-diol-(2,3-14C); <2.3-14C2>Butin-(2)-diol-(1.4); 2-Butin-1,4-diol-2,3-14C2; [2,3-14C]but-2-yne-1,4-diol",C2(14)C2H6O2,C4H6O2,90.0684,acyclic,,DLDJFQGPPSQZKI-XPULMUKRSA-N,,,,Identification(5); Physical Data(2); Spectra(1),2.0,3.0,57.4,,,,,,"Article; Burger; Journal of Labelled Compounds; vol. 4; (1968); p. 262,271;",https://www.reaxys.com/reaxys/secured/hopinto.do?context=C&query=CNR.CNR%3D2724865&database=RX&origin=ReaxysOutput&ln=
,FC(=C)C(F)=C,1737743.0,https://www.reaxys.com/reaxys/secured/hopinto.do?context=S&query=IDE.XRN%3D1737743&database=RX&origin=ReaxysOutput&ln=,(1830 of 4000),381-69-1,"2,3-Difluor-1,3-butadien; 2,3-Difluoro-1,3-butadien; 2,3-difluoro-buta-1,3-diene; 2,3-Difluor-buta-1,3-dien",C4H4F2,C4H4F2,90.0726,acyclic,,XQQOMTYXDIGHNA-UHFFFAOYSA-N,,,,Identification(5); Physical Data(4); Spectra(3),3.0,4.0,-92,,,,,,Patent; BRIDGESTONE CORPORATION; US2647110; (1949); A;,https://www.reaxys.com/reaxys/secured/hopinto.do?context=C&query=CNR.CNR%3D1395111&database=RX&origin=ReaxysOutput&ln=
,F\C=C/C=C\F,1839899.0,https://www.reaxys.com/reaxys/secured/hopinto.do?context=S&query=IDE.XRN%3D1839899&database=RX&origin=ReaxysOutput&ln=,(1831 of 4000),35694-29-2,"cis,cis-1,4-Difluorobutadiene; 1,4-Difluor-butadien-(1,3); cis,cis-1,4-Difluor-1,3-butadien; 1c,4c-difluoro-buta-1,3-diene",C4H4F2,C4H4F2,90.0726,acyclic,,RXJPYUWYMSTJKF-CCAGOZQPSA-N,,,,Identification(9); Physical Data(2); Spectra(12),2.0,3.0,-58,,,,,,"Article; Craig, Norman C.; Neese, Christopher F.; Nguyen, Tuan N.; Oertel, Catherine M.; Pedraza, Laura; Chaka, Anne M.; Journal of Physical Chemistry A; vol. 103; 34; (1999); p. 6726 - 6739;",https://www.reaxys.com/reaxys/secured/hopinto.do?context=C&query=CNR.CNR%3D6192835&database=RX&origin=ReaxysOutput&ln=
,F\C=C\C=C\F,1839901.0,https://www.reaxys.com/reaxys/secured/hopinto.do?context=S&query=IDE.XRN%3D1839901&database=RX&origin=ReaxysOutput&ln=,(1832 of 4000),35694-31-6,"trans,trans-1,4-Difluorobutadiene; 1,4-Difluor-butadien-(1,3); 1,4-Difluor-s-cis-butadien; trans,trans-1,4-Difluor-1,3-butadien; 1t,4t-difluoro-buta-1,3-diene",C4H4F2,C4H4F2,90.0726,acyclic,,RXJPYUWYMSTJKF-ZPUQHVIOSA-N,,,,Identification(9); Physical Data(2); Spectra(13),3.0,5.0,-56,,,,,,"Article; Craig, Norman C.; Neese, Christopher F.; Nguyen, Tuan N.; Oertel, Catherine M.; Pedraza, Laura; Chaka, Anne M.; Journal of Physical Chemistry A; vol. 103; 34; (1999); p. 6726 - 6739;",https://www.reaxys.com/reaxys/secured/hopinto.do?context=C&query=CNR.CNR%3D6192835&database=RX&origin=ReaxysOutput&ln=
,F[C@@H]1C=C[C@H]1F,6683205.0,https://www.reaxys.com/reaxys/secured/hopinto.do?context=S&query=IDE.XRN%3D6683205&database=RX&origin=ReaxysOutput&ln=,(1833 of 4000),,"trans-3,4-difluorocyclobutene",C4H4F2,C4H4F2,90.0726,isocyclic,racemate,FMZQAHWLKIRBNV-QWWZWVQMSA-N,,,,Identification(7); Physical Data(5); Spectra(20),3.0,4.0,-60,,,,,,"Article; Craig, Norman C.; Hawley, Susan E.; Lee, Lac V.; Pearson, Ann; Spectrochimica Acta Part A: Molecular and Biomolecular Spectroscopy; vol. 50; 2; (1994); p. 191 - 202;",https://www.reaxys.com/reaxys/secured/hopinto.do?context=C&query=CNR.CNR%3D5851315&database=RX&origin=ReaxysOutput&ln=
,C1OCOCO1,102769.0,https://www.reaxys.com/reaxys/secured/hopinto.do?context=S&query=IDE.XRN%3D102769&database=RX&origin=ReaxysOutput&ln=,(1834 of 4000),110-88-3,"1,3,5-Trioxan; 1,3,5-trioxane; paraformaldehyde",(CH2O)3,C3H6O3,90.0788,heterocyclic,,BGJSXRVXTHVRSN-UHFFFAOYSA-N,,,,Identification(620); Physical Data(216); Spectra(59); Bioactivity(83),1552.0,1616.0,62 - 63,,,,,,"Article; Novikov; Shestak; Russian Chemical Bulletin; vol. 61; 6; (2012); p. 1099 - 1110; Izv. Akad. Nauk, Ser. Khim.; 6; (2012); p. 1092 - 1102,11;",https://www.reaxys.com/reaxys/secured/hopinto.do?context=C&query=CNR.CNR%3D35559328&database=RX&origin=ReaxysOutput&ln=
,COC(=O)OC,635821.0,https://www.reaxys.com/reaxys/secured/hopinto.do?context=S&query=IDE.XRN%3D635821&database=RX&origin=ReaxysOutput&ln=,(1835 of 4000),616-38-6,carbonic acid dimethyl ester; Dimethyl carbonate,CH3OCOOCH3,C3H6O3,90.0788,acyclic,,IEJIGPNLZYLLBP-UHFFFAOYSA-N,,,,Identification(7407); Physical Data(829); Spectra(135); Bioactivity(561),5251.0,11143.0,4.6,,,,,,Article; Schroeder; Hubaud; Vaughey; Materials Research Bulletin; vol. 49; 1; (2014); p. 614 - 617;,https://www.reaxys.com/reaxys/secured/hopinto.do?context=C&query=CNR.CNR%3D61723265&database=RX&origin=ReaxysOutput&ln=