Structure: Image,SMILES,Substance Identification: Reaxys Registry Number,Links to Reaxys,Data Count,CAS Registry Number,Chemical Name,Linear Structure Formula,Molecular Formula,Molecular Weight,Type of Substance,Type and Modification,InChI Key,Composition: Comp. Name,Composition: Comp. Conc.,Composition: Comp. Attrib.,Field Availability,Number of Reactions,Number of References,Melting Point: Melting Point [C],Solvent (Melting Point),Location,Comment (Melting Point),Crystallizes With,Amount (Melting Point) [mol],References,Links to Reaxys.1
,OCCF,1730857.0,https://www.reaxys.com/reaxys/secured/hopinto.do?context=S&query=IDE.XRN%3D1730857&database=RX&origin=ReaxysOutput&ln=,(413 of 4000),371-62-0,2-fluoroethanol; fluoroethanol; 2-fluoroethan-1-ol; 2-fluorethanol; monofluoroethanol; 2-fluoro-1-ethanol,HOCH2CH2F,C2H5FO,64.0595,acyclic,,GGDYAKVUZMZKRV-UHFFFAOYSA-N,,,,Identification(153); Physical Data(122); Spectra(95); Bioactivity(41),680.0,766.0,-43,,,,,,Article; Saunders; Stacey; Wilding; Journal of the Chemical Society; (1949); p. 775;,https://www.reaxys.com/reaxys/secured/hopinto.do?context=C&query=CNR.CNR%3D1332090&database=RX&origin=ReaxysOutput&ln=
,O=S=O,3535237.0,https://www.reaxys.com/reaxys/secured/hopinto.do?context=S&query=IDE.XRN%3D3535237&database=RX&origin=ReaxysOutput&ln=,(414 of 4000),7446-09-5,sulfur dioxide; sulfur(IV) oxide; Sulphur dioxide,OSO,O2S,64.0648,,,RAHZWNYVWXNFOC-UHFFFAOYSA-N,,,,Identification(20706); Physical Data(3312); Spectra(340); Bioactivity(1477),5202.0,29357.0,-72.7,,,,,,Article; Kafarov; Dorokhov; Vetokhin; Volkov; Doklady. Chemical technology; vol. 304-6; (1989); p. 65 - 68; (from Gmelin),https://www.reaxys.com/reaxys/secured/hopinto.do?context=C&query=CNR.CNR%3D7328832&database=RX&origin=ReaxysOutput&ln=
,[H]O[H].CCO,3663484.0,https://www.reaxys.com/reaxys/secured/hopinto.do?context=S&query=IDE.XRN%3D3663484&database=RX&origin=ReaxysOutput&ln=,(415 of 4000),180330-54-5,water ethanol; ethanol-water; ethyl alcohol water,C2H6O*H2O,C2H6O*H2O,64.0843,acyclic,,IDGUHHHQCWSQLU-UHFFFAOYSA-N,,,,Identification(4094); Physical Data(9); Spectra(4),141.0,4003.0,139 - 141,,,,,,Patent; ARIZONA BOARD OF REGENTS; US2003/220298; (2003); A1;,https://www.reaxys.com/reaxys/secured/hopinto.do?context=C&query=CNR.CNR%3D233690&database=RX&origin=ReaxysOutput&ln=
,C#CCC#C,1730968.0,https://www.reaxys.com/reaxys/secured/hopinto.do?context=S&query=IDE.XRN%3D1730968&database=RX&origin=ReaxysOutput&ln=,(416 of 4000),24442-69-1,"malononitrile; 1,4-pentadiyne; 1,4-Pentadiin; Pentadiin-(1.4)",CHCCH2CCH,C5H4,64.0868,acyclic,,MDROPVLMRLHTDK-UHFFFAOYSA-N,,,,Identification(38); Physical Data(12); Spectra(10),53.0,51.0,-21 - -19,,,,,,"Article; Ben-Efraim,D.A.; Sondheimer,F.; Tetrahedron; vol. 25; (1969); p. 2823 - 2835;",https://www.reaxys.com/reaxys/secured/hopinto.do?context=C&query=CNR.CNR%3D89338&database=RX&origin=ReaxysOutput&ln=
,CC#CC#C,1730997.0,https://www.reaxys.com/reaxys/secured/hopinto.do?context=S&query=IDE.XRN%3D1730997&database=RX&origin=ReaxysOutput&ln=,(417 of 4000),4911-55-1,"penta-1,3-diyne; 1,3-pentadiyne",HCCCCCH3,C5H4,64.0868,acyclic,,VNMDYSSJFJFEQI-UHFFFAOYSA-N,,,,Identification(60); Physical Data(34); Spectra(29),190.0,171.0,-31.5 - -30.5,,,,,,"Article; Benestad et al.; Spectrochimica Acta Part A: Molecular and Biomolecular Spectroscopy; vol. 31; (1975); p. 1329,1330,1334,1336,1341;",https://www.reaxys.com/reaxys/secured/hopinto.do?context=C&query=CNR.CNR%3D4563610&database=RX&origin=ReaxysOutput&ln=
,C#CC1C=C1,5489842.0,https://www.reaxys.com/reaxys/secured/hopinto.do?context=S&query=IDE.XRN%3D5489842&database=RX&origin=ReaxysOutput&ln=,(418 of 4000),159208-95-4,3-ethynylcyclopropene,C5H4,C5H4,64.0868,isocyclic,,JGJOZLNPBMYOLU-UHFFFAOYSA-N,,,,Identification(7); Physical Data(6); Spectra(7),8.0,4.0,-94,,,,,,"Article; Baldridge, Kim K.; Biggs, Bluegrass; Blaeser, Dieter; Boese, Roland; Gilbertson, Robert D.; Haley, Michael M.; Maulitz, Andreas H.; Siegel, Jay S.; Chemical Communications; 10; (1998); p. 1137 - 1138;",https://www.reaxys.com/reaxys/secured/hopinto.do?context=C&query=CNR.CNR%3D6095147&database=RX&origin=ReaxysOutput&ln=
,OCS,5915855.0,https://www.reaxys.com/reaxys/secured/hopinto.do?context=S&query=IDE.XRN%3D5915855&database=RX&origin=ReaxysOutput&ln=,(419 of 4000),22322-29-8,mercaptomethanol; formthional; thioformaldehyde hydrate; ethanethiol; thiomethanol; hydroxymethyl thiol,CH4OS,CH4OS,64.1082,acyclic,,GXDPEHGCHUDUFE-UHFFFAOYSA-N,,,,Identification(437); Physical Data(1); Spectra(1),13.0,439.0,79 - 82,,,,,,"Article; Rafikov, S. R.; Aleev, R. S.; Masagutov, R. M.; Danilov, V. T.; Dal'nova, Yu. S.; Bulletin of the Academy of Sciences of the USSR Division of Chemical Science; vol. 31; 7; (1982); p. 1452 - 1453; Izvestiya Akademii Nauk SSSR, Seriya Khimicheskaya; 7; (1982); p. 1631 - 1633;",https://www.reaxys.com/reaxys/secured/hopinto.do?context=C&query=CNR.CNR%3D5836592&database=RX&origin=ReaxysOutput&ln=
,C[SH]=O,6184716.0,https://www.reaxys.com/reaxys/secured/hopinto.do?context=S&query=IDE.XRN%3D6184716&database=RX&origin=ReaxysOutput&ln=,(420 of 4000),874130-97-9,methylsulphoxide; methyl sulfoxide,CH4OS,CH4OS,64.1082,acyclic,,BOTYRLOGQKSOAE-UHFFFAOYSA-N,,,,Identification(9); Physical Data(4); Spectra(8),7.0,15.0,158 - 160,,,,,,Patent; ABBOTT LABORATORIES INC; US6307047; (2001); B1;,https://www.reaxys.com/reaxys/secured/hopinto.do?context=C&query=CNR.CNR%3D129755&database=RX&origin=ReaxysOutput&ln=
,C[SiH2]F,1730799.0,https://www.reaxys.com/reaxys/secured/hopinto.do?context=S&query=IDE.XRN%3D1730799&database=RX&origin=ReaxysOutput&ln=,(421 of 4000),753-44-6,methyl fluorosilane; Methyl-fluor-silan; Fluor-methyl-silan,CH3SiH2F,CH5FSi,64.1346,acyclic,,OVBSGCLBYYVGQR-UHFFFAOYSA-N,,,,Identification(10); Physical Data(13); Spectra(9),17.0,24.0,-125,,,,,,"Article; Emeleus; Onyszchuk; Journal of the Chemical Society; (1958); p. 604,606;",https://www.reaxys.com/reaxys/secured/hopinto.do?context=C&query=CNR.CNR%3D1278774&database=RX&origin=ReaxysOutput&ln=
,ClC=O,1732386.0,https://www.reaxys.com/reaxys/secured/hopinto.do?context=S&query=IDE.XRN%3D1732386&database=RX&origin=ReaxysOutput&ln=,(423 of 4000),2565-30-2,formyl chloride,HCOCl,CHClO,64.4713,acyclic,,GFAUNYMRSKVDJL-UHFFFAOYSA-N,,,,Identification(151); Physical Data(12); Spectra(26),206.0,324.0,138 - 140,,,,,,Patent; PFIZER INC; US5593967; (1997); A;,https://www.reaxys.com/reaxys/secured/hopinto.do?context=C&query=CNR.CNR%3D7164940&database=RX&origin=ReaxysOutput&ln=
,CCCl,1730751.0,https://www.reaxys.com/reaxys/secured/hopinto.do?context=S&query=IDE.XRN%3D1730751&database=RX&origin=ReaxysOutput&ln=,(424 of 4000),75-00-3,chloroethane; Ethyl chloride,CH3CH2Cl,C2H5Cl,64.5147,acyclic,,HRYZWHHZPQKTII-UHFFFAOYSA-N,,,,Identification(1065); Physical Data(420); Spectra(99); Bioactivity(187),1663.0,3233.0,-138.3,,,,,,Article; Gordon; Giauque; Journal of the American Chemical Society; vol. 70; (1948); p. 1507;,https://www.reaxys.com/reaxys/secured/hopinto.do?context=C&query=CNR.CNR%3D1330820&database=RX&origin=ReaxysOutput&ln=
,FN(=O)=O,3926975.0,https://www.reaxys.com/reaxys/secured/hopinto.do?context=S&query=IDE.XRN%3D3926975&database=RX&origin=ReaxysOutput&ln=,(425 of 4000),10022-50-1,nitrylfluoride; nitro fluorine,O2NF,FNO2,65.0039,,,JVJQPDTXIALXOG-UHFFFAOYSA-N,,,,Identification(19); Physical Data(41); Spectra(5),94.0,141.0,-165.9,,,,,,"Article; Ruff, O.; Menzel, W.; Neumann, W.; Zeitschrift fur anorganische Chemie; vol. 208; (1932); p. 293 - 303;; ; Article; Gmelin Handbuch der Anorganischen Chemie; vol. F: SVol.1; 75, page 253 - 256; (from Gmelin)",https://www.reaxys.com/reaxys/secured/hopinto.do?context=C&query=CNR.CNR%3D7257209&database=RX&origin=ReaxysOutput&ln=
,[Li+].[S-]C#N,3623307.0,https://www.reaxys.com/reaxys/secured/hopinto.do?context=S&query=IDE.XRN%3D3623307&database=RX&origin=ReaxysOutput&ln=,(426 of 4000),556-65-0,lithium thiocyanate,Li(1+)*CNS(1-),CLiNS,65.0247,acyclic,,ZJZXSOKJEJFHCP-UHFFFAOYSA-M,,,,Identification(43); Physical Data(134); Spectra(108),221.0,238.0,277,,,,,,"Article; Poulsen, F. W.; Acta chemica Scandinavica. Series A: Physical and inorganic chemistry; vol. 39; (1985); p. 290 - 292; (from Gmelin)",https://www.reaxys.com/reaxys/secured/hopinto.do?context=C&query=CNR.CNR%3D7866023&database=RX&origin=ReaxysOutput&ln=
,CC#CC#N,1098324.0,https://www.reaxys.com/reaxys/secured/hopinto.do?context=S&query=IDE.XRN%3D1098324&database=RX&origin=ReaxysOutput&ln=,(427 of 4000),13752-78-8,2-butynenitrile; 1-cyanopropyne; cyanopropyne; propynyl cyanide; but-2-ynenitrile; tetrolonitrile; But-2-innitril,CH3CCCN,C4H3N,65.0745,acyclic,,WNXDCVVDPKHWMW-UHFFFAOYSA-N,,,,Identification(29); Physical Data(28); Spectra(17),46.0,68.0,17 - 18,,,,,,"Article; Wentrup; Crow; Tetrahedron; vol. 27; (1971); p. 361;; ; Article; Wentrup; Crow; Tetrahedron; vol. 26; (1970); p. 4915,4917,4922;",https://www.reaxys.com/reaxys/secured/hopinto.do?context=C&query=CNR.CNR%3D2676857&database=RX&origin=ReaxysOutput&ln=
,CN.[H]S[H],3662864.0,https://www.reaxys.com/reaxys/secured/hopinto.do?context=S&query=IDE.XRN%3D3662864&database=RX&origin=ReaxysOutput&ln=,(428 of 4000),74706-97-1,methylamine; hydrogensulfide; Methylamin; Hydrogensulfid,CH5N*H2S,CH5N*H2S,65.1393,acyclic,,RWVHWIUMDYZAPF-UHFFFAOYSA-N,,,,Identification(6); Physical Data(3),,2.0,40 - 44,,,im offenen Rohr.,,,Article; Achterhof; Conaway; Boord; Journal of the American Chemical Society; vol. 53; (1931); p. 2687;,https://www.reaxys.com/reaxys/secured/hopinto.do?context=C&query=CNR.CNR%3D1233529&database=RX&origin=ReaxysOutput&ln=
,ClN=O,5237779.0,https://www.reaxys.com/reaxys/secured/hopinto.do?context=S&query=IDE.XRN%3D5237779&database=RX&origin=ReaxysOutput&ln=,(430 of 4000),2696-92-6,nitrosylchloride,ClNO,ClNO,65.4591,,,VPCDQGACGWYTMC-UHFFFAOYSA-N,,,,Identification(206); Physical Data(282); Spectra(78),827.0,1239.0,-61,,,,,,"Article; Obermeyer, Axel; Borrmann, Horst; Simon, Arndt; Journal of the American Chemical Society; vol. 117; 30; (1995); p. 7887 - 7890; (from Gmelin)",https://www.reaxys.com/reaxys/secured/hopinto.do?context=C&query=CNR.CNR%3D5972489&database=RX&origin=ReaxysOutput&ln=
,[2H]C([2H])=C([2H])Cl,1699404.0,https://www.reaxys.com/reaxys/secured/hopinto.do?context=S&query=IDE.XRN%3D1699404&database=RX&origin=ReaxysOutput&ln=,(432 of 4000),6745-35-3,vinyl chloride-d3; Trideuterio-vinylchlorid,C2D3Cl,C2H3Cl,65.475,acyclic,,BZHJMEDXRYGGRV-FUDHJZNOSA-N,,,,Identification(6); Physical Data(8); Spectra(7),6.0,15.0,-164,,,,,,"Article; Jensen; Bushweller; Journal of the American Chemical Society; vol. 91; (1969); p. 5774,5781;",https://www.reaxys.com/reaxys/secured/hopinto.do?context=C&query=CNR.CNR%3D3638046&database=RX&origin=ReaxysOutput&ln=
,[H]P([H])(O)=O,3600366.0,https://www.reaxys.com/reaxys/secured/hopinto.do?context=S&query=IDE.XRN%3D3600366&database=RX&origin=ReaxysOutput&ln=,(434 of 4000),6303-21-5,hypophosphorous acid,HPH2O2,H3O2P,65.9964,Isotope or isotope containing compound,,ACVYVLVWPXVTIT-UHFFFAOYSA-N,,,,Identification(508); Physical Data(96); Spectra(19),513.0,1019.0,26.5,,,,,,"Article; Jenkins, W. A.; Jones, R. T.; Journal of the American Chemical Society; vol. 74; (1952); p. 1353 - 1354;; ; Article; Marie, C.; Comptes Rendus Hebdomadaires des Seances de l'Academie des Sciences; vol. 138; (1904); p. 1216 - 1217;; ; Article; Gmelin Handbuch der Anorganischen Chemie; vol. P: MVol.C; 48, page 98 - 101; (from Gmelin)",https://www.reaxys.com/reaxys/secured/hopinto.do?context=C&query=CNR.CNR%3D7425867&database=RX&origin=ReaxysOutput&ln=
,FC(F)=O,1697946.0,https://www.reaxys.com/reaxys/secured/hopinto.do?context=S&query=IDE.XRN%3D1697946&database=RX&origin=ReaxysOutput&ln=,(435 of 4000),353-50-4,Carbonyl fluoride; carbonic acid difluoride,F2CO,CF2O,66.0072,acyclic,,IYRWEQXVUNLMAY-UHFFFAOYSA-N,,,,Identification(286); Physical Data(256); Spectra(104); Bioactivity(59),865.0,1135.0,-111.26,,,,,,"Article; Pace; Reno; Journal of Chemical Physics; vol. 48; (1968); p. 1231,1232;",https://www.reaxys.com/reaxys/secured/hopinto.do?context=C&query=CNR.CNR%3D3907927&database=RX&origin=ReaxysOutput&ln=
,F[H].OC=O,8144540.0,https://www.reaxys.com/reaxys/secured/hopinto.do?context=S&query=IDE.XRN%3D8144540&database=RX&origin=ReaxysOutput&ln=,(436 of 4000),,"fluoride, formic acid",CH2O2*FH,CH2O2*FH,66.032,acyclic,,ARFRUFTWYDAALE-UHFFFAOYSA-N,,,,Identification(6); Physical Data(6),,2.0,-31.15,,,,,,"Article; Wiechert, Dirk; Mootz, Dietrich; Dahlems, Thomas; Journal of the American Chemical Society; vol. 119; 51; (1997); p. 12665 - 12666;",https://www.reaxys.com/reaxys/secured/hopinto.do?context=C&query=CNR.CNR%3D6149265&database=RX&origin=ReaxysOutput&ln=
,CC(F)F,1696900.0,https://www.reaxys.com/reaxys/secured/hopinto.do?context=S&query=IDE.XRN%3D1696900&database=RX&origin=ReaxysOutput&ln=,(437 of 4000),75-37-6,"1,1-difluoroethane",F2CHCH3,C2H4F2,66.0506,acyclic,,NPNPZTNLOVBDOC-UHFFFAOYSA-N,,,,Identification(514); Physical Data(231); Spectra(64); Bioactivity(48),106.0,825.0,-117,,,,,,Patent; I.G. FARBENINDUSTRIE AG (historic); DE641878; (1934); C; Fortschr. Teerfarbenfabr. Verw. Industriezweige; vol. 23; p. 80; Fortschr. Teerfarbenfabr. Verw. Industriezweige; vol. 23; p. 80;,https://www.reaxys.com/reaxys/secured/hopinto.do?context=C&query=CNR.CNR%3D1330629&database=RX&origin=ReaxysOutput&ln=
,N#CCC#N,773697.0,https://www.reaxys.com/reaxys/secured/hopinto.do?context=S&query=IDE.XRN%3D773697&database=RX&origin=ReaxysOutput&ln=,(438 of 4000),109-77-3,malononitrile; malonodinitrile,H2C(CN)2,C3H2N2,66.0623,acyclic,,CUONGYYJJVDODC-UHFFFAOYSA-N,,,,Identification(3818); Physical Data(292); Spectra(106); Bioactivity(843),41953.0,16625.0,32,,,,,,"Article; Crawford, Deborah E.; Miskimmin, Clodagh K. G.; Albadarin, Ahmad B.; Walker, Gavin; James, Stuart L.; Green Chemistry; vol. 19; 6; (2017); p. 1507 - 1518;",https://www.reaxys.com/reaxys/secured/hopinto.do?context=C&query=CNR.CNR%3D71149354&database=RX&origin=ReaxysOutput&ln=
,[C-]#[N+]C[N+]#[C-],1904447.0,https://www.reaxys.com/reaxys/secured/hopinto.do?context=S&query=IDE.XRN%3D1904447&database=RX&origin=ReaxysOutput&ln=,(439 of 4000),927-79-7,Diisocyanomethane; Diisocyanomethan,CNCH2NC,C3H2N2,66.0623,acyclic,,CTFQSPGMSLBQQF-UHFFFAOYSA-N,,,,Identification(9); Physical Data(10); Spectra(5),5.0,9.0,-15,diethyl ether; pentane,,,,,"Article; Koritsanszky, Tibor; Buschmann, Juergen; Lentz, Dieter; Luger, Peter; Perpetuo, Genivaldo; Roettger, Matthias; Chemistry - A European Journal; vol. 5; 11; (1999); p. 3413 - 3420;",https://www.reaxys.com/reaxys/secured/hopinto.do?context=C&query=CNR.CNR%3D6217675&database=RX&origin=ReaxysOutput&ln=
,C1C=CC=C1,471171.0,https://www.reaxys.com/reaxys/secured/hopinto.do?context=S&query=IDE.XRN%3D471171&database=RX&origin=ReaxysOutput&ln=,(441 of 4000),542-92-7,"cyclopenta-1,3-diene; 1,3-cyclopentadiene; cyclopentadiene",HC5H5,C5H6,66.1026,isocyclic,,ZSWFCLXCOIISFI-UHFFFAOYSA-N,,,,Identification(2925); Physical Data(346); Spectra(103); Bioactivity(542),22036.0,10751.0,41 - 42,,,,,,Article; Kulieva; Mamedov; Azizov; Alieva; Russian Journal of Applied Chemistry; vol. 83; 7; (2010); p. 1336 - 1338;,https://www.reaxys.com/reaxys/secured/hopinto.do?context=C&query=CNR.CNR%3D8958609&database=RX&origin=ReaxysOutput&ln=
,C1CC11C=C1,2232014.0,https://www.reaxys.com/reaxys/secured/hopinto.do?context=S&query=IDE.XRN%3D2232014&database=RX&origin=ReaxysOutput&ln=,(442 of 4000),661-39-2,Spiropenten,C5H6,C5H6,66.1026,isocyclic,,YGSMGHRVKGFZPG-UHFFFAOYSA-N,,,,Identification(8); Physical Data(1); Spectra(6),5.0,4.0,39.03,,,,,,"Article; Engelbrecht; de Vries; Journal of the South African Chemical Institute; vol. 23; (1970); p. 163,164;",https://www.reaxys.com/reaxys/secured/hopinto.do?context=C&query=CNR.CNR%3D4296339&database=RX&origin=ReaxysOutput&ln=
,C=CC1C=C1,6916825.0,https://www.reaxys.com/reaxys/secured/hopinto.do?context=S&query=IDE.XRN%3D6916825&database=RX&origin=ReaxysOutput&ln=,(443 of 4000),61082-23-3,3-ethenylcyclopropene; 3-Vinylcyclopropene; 3-Vinylcyclopropen,C5H6,C5H6,66.1026,isocyclic,,AFVXHPBHWSOYEJ-UHFFFAOYSA-N,,,,Identification(15); Physical Data(3),3.0,8.0,-92,,,,,,"Article; Boese, Roland; Blaeser, Dieter; Billups, W. E.; Haley, Michael M.; Luo, Weimei; Arney, Benny E.; Journal of Organic Chemistry; vol. 59; 26; (1994); p. 8125 - 8126;",https://www.reaxys.com/reaxys/secured/hopinto.do?context=C&query=CNR.CNR%3D5931872&database=RX&origin=ReaxysOutput&ln=
,SS,3902965.0,https://www.reaxys.com/reaxys/secured/hopinto.do?context=S&query=IDE.XRN%3D3902965&database=RX&origin=ReaxysOutput&ln=,(444 of 4000),23550-45-0,disulfane,(SH)2,H2S2,66.1479,,,BWGNESOTFCXPMA-UHFFFAOYSA-N,,,,Identification(1226); Physical Data(152); Spectra(46); Bioactivity(72),143.0,1380.0,-89.8 - -78,,,,,,"Article; Butler, K. H.; Maass, O.; Journal of the American Chemical Society; vol. 52; (1930); p. 2184 - 2198;; ; Article; Gmelin Handbuch der Anorganischen Chemie; vol. S: MVol.B1; 66, page 146 - 148; (from Gmelin)",https://www.reaxys.com/reaxys/secured/hopinto.do?context=C&query=CNR.CNR%3D7404763&database=RX&origin=ReaxysOutput&ln=
,CB(C)C#N,1847910.0,https://www.reaxys.com/reaxys/secured/hopinto.do?context=S&query=IDE.XRN%3D1847910&database=RX&origin=ReaxysOutput&ln=,(446 of 4000),58347-20-9,Dimethylcyanboran; (dimethyl)cyanoborane,(CH3)2BCN,C3H6BN,66.8983,acyclic,,JRECXXVVMHFHFR-UHFFFAOYSA-N,,,,Identification(5); Physical Data(2); Spectra(4),2.0,4.0,98,,,,,,"Article; Siebert et al.; Zeitschrift fur Anorganische und Allgemeine Chemie; vol. 418; (1975); p. 273,277;",https://www.reaxys.com/reaxys/secured/hopinto.do?context=C&query=CNR.CNR%3D3961287&database=RX&origin=ReaxysOutput&ln=
,CN(F)F,2035812.0,https://www.reaxys.com/reaxys/secured/hopinto.do?context=S&query=IDE.XRN%3D2035812&database=RX&origin=ReaxysOutput&ln=,(447 of 4000),753-58-2,"N,N-difluoro-methanamine; Methyldifluoramin; Difluor-methyl-amin; N,N-Difluor-methylamin",CH3NF2,CH3F2N,67.0383,acyclic,,KTNJOGGUCNTDHY-UHFFFAOYSA-N,,,,Identification(7); Physical Data(18); Spectra(8),11.0,29.0,-114.8,,,,,,"Article; Frazer; Journal of Inorganic and Nuclear Chemistry; vol. 16; (1960); p. 63,65;; ; Patent; U.S. Atomic Energy Commission; US3166595; (1961); A; Chem.Abstr.; vol. 62; 9009c; (1965); Chem.Abstr.; vol. 62; 9009c; (1965);",https://www.reaxys.com/reaxys/secured/hopinto.do?context=C&query=CNR.CNR%3D3751020&database=RX&origin=ReaxysOutput&ln=
,O=C=NC#C,35276050.0,https://www.reaxys.com/reaxys/secured/hopinto.do?context=S&query=IDE.XRN%3D35276050&database=RX&origin=ReaxysOutput&ln=,(448 of 4000),,ethynyl isocyanate,C3HNO,C3HNO,67.047,,,XYBRCHPMANOANY-UHFFFAOYSA-N,,,,Identification(8); Physical Data(3); Spectra(6),7.0,4.0,-79.5,,,,,,"Article; Qin, Yuanyuan; Lu, Bo; Rauhut, Guntram; Hagedorn, Manfred; Banert, Klaus; Song, Chao; Chu, Xianxu; Wang, Lina; Zeng, Xiaoqing; Angewandte Chemie - International Edition; vol. 58; 48; (2019); p. 17277 - 17281; Angew. Chem.; vol. 131; 48; (2019); p. 17437 - 17441,5;",https://www.reaxys.com/reaxys/secured/hopinto.do?context=C&query=CNR.CNR%3D78236020&database=RX&origin=ReaxysOutput&ln=
,N#CNC#N,1698463.0,https://www.reaxys.com/reaxys/secured/hopinto.do?context=S&query=IDE.XRN%3D1698463&database=RX&origin=ReaxysOutput&ln=,(449 of 4000),504-66-5,dicyandiamide; Dicyanamid; dicyanamide,C2N2(NH),C2HN3,67.05,acyclic,,QWJNFFYFEKXZBF-UHFFFAOYSA-N,,,,Identification(29); Physical Data(16); Spectra(2),69.0,77.0,206 - 208,,,,,,"Article; Clemens et al.; Tetrahedron Letters; (1965); p. 1491,1492;",https://www.reaxys.com/reaxys/secured/hopinto.do?context=C&query=CNR.CNR%3D3258309&database=RX&origin=ReaxysOutput&ln=