Structure: Image,SMILES,Substance Identification: Reaxys Registry Number,Links to Reaxys,Data Count,CAS Registry Number,Chemical Name,Linear Structure Formula,Molecular Formula,Molecular Weight,Type of Substance,Type and Modification,InChI Key,Composition: Comp. Name,Composition: Comp. Conc.,Composition: Comp. Attrib.,Field Availability,Number of Reactions,Number of References,Melting Point: Melting Point [C],Solvent (Melting Point),Location,Comment (Melting Point),Crystallizes With,Amount (Melting Point) [mol],References,Links to Reaxys.1
,OCC(O)C=O,635844.0,https://www.reaxys.com/reaxys/secured/hopinto.do?context=S&query=IDE.XRN%3D635844&database=RX&origin=ReaxysOutput&ln=,(1836 of 4000),56-82-6,Glyceraldehyde,CHOCHOHCH2OH,C3H6O3,90.0788,acyclic,,MNQZXJOMYWMBOU-UHFFFAOYSA-N,,,,Identification(3093); Physical Data(41); Spectra(49); Bioactivity(219),587.0,3477.0,144 - 146,,,,,,"Article; Ren, Yuxi; Chen, Zhen; Cai, Yanhong; Lin, Jinhuo; Electrochemistry Communications; vol. 13; 12; (2011); p. 1317 - 1319;",https://www.reaxys.com/reaxys/secured/hopinto.do?context=C&query=CNR.CNR%3D20152963&database=RX&origin=ReaxysOutput&ln=
,OCCC(O)=O,773806.0,https://www.reaxys.com/reaxys/secured/hopinto.do?context=S&query=IDE.XRN%3D773806&database=RX&origin=ReaxysOutput&ln=,(1837 of 4000),503-66-2,3-hydroxypropionic acid,CH2(OH)CH2CO2H,C3H6O3,90.0788,acyclic,,ALRHLSYJTWAHJZ-UHFFFAOYSA-N,,,,Identification(2067); Physical Data(38); Spectra(42); Bioactivity(136),256.0,2238.0,139 - 140,,,,,,Patent; ELECTRICITE DE FRANCE SA - EDF; GB1129215; (1966); A; Chem.Abstr.; vol. 70; 19596r; (1969); Chem.Abstr.; vol. 70; 19596r; (1969);,https://www.reaxys.com/reaxys/secured/hopinto.do?context=C&query=CNR.CNR%3D4116286&database=RX&origin=ReaxysOutput&ln=
,CC(O)C(O)=O,1209341.0,https://www.reaxys.com/reaxys/secured/hopinto.do?context=S&query=IDE.XRN%3D1209341&database=RX&origin=ReaxysOutput&ln=,(1838 of 4000),849585-22-4,LACTIC ACID,HOCH(CH3)COOH,C3H6O3,90.0788,acyclic,,JVTAAEKCZFNVCJ-UHFFFAOYSA-N,,,,Identification(36423); Physical Data(417); Spectra(223); Bioactivity(2166),2067.0,36678.0,53,,Paragraph 0050,,,,"Patent; HISAMITSU PHARMACEUTICAL CO, INC.; EP2957297; (2015); A1;",https://www.reaxys.com/reaxys/secured/hopinto.do?context=C&query=CNR.CNR%3D67916247&database=RX&origin=ReaxysOutput&ln=
,CCC(=O)OO,1699437.0,https://www.reaxys.com/reaxys/secured/hopinto.do?context=S&query=IDE.XRN%3D1699437&database=RX&origin=ReaxysOutput&ln=,(1839 of 4000),4212-43-5,perpropionic acid; peroxypropionic acid,C3H6O3,C3H6O3,90.0788,acyclic,,CZPZWMPYEINMCF-UHFFFAOYSA-N,,,,Identification(62); Physical Data(44); Spectra(10),49.0,128.0,-13.1,,,,,,"Article; Egerton et al.; Discussions of the Faraday Society; vol. 10; (1951); p. 278,281;",https://www.reaxys.com/reaxys/secured/hopinto.do?context=C&query=CNR.CNR%3D1178028&database=RX&origin=ReaxysOutput&ln=
,[H][C@@](C)(O)C(O)=O,1720251.0,https://www.reaxys.com/reaxys/secured/hopinto.do?context=S&query=IDE.XRN%3D1720251&database=RX&origin=ReaxysOutput&ln=,(1840 of 4000),79-33-4,L-Lactic acid,CH3CH(OH)CO2H,C3H6O3,90.0788,acyclic,,JVTAAEKCZFNVCJ-REOHCLBHSA-N,,,,Identification(2753); Physical Data(101); Spectra(81); Bioactivity(329),927.0,3593.0,52 - 54,,Paragraph 0088,,,,Patent; OTSUKA HOLDINGS CO LTD; WO2021/225956; (2021); A1;,https://www.reaxys.com/reaxys/secured/hopinto.do?context=C&query=CNR.CNR%3D105723176&database=RX&origin=ReaxysOutput&ln=
,[H][C@](C)(O)C(O)=O,1720252.0,https://www.reaxys.com/reaxys/secured/hopinto.do?context=S&query=IDE.XRN%3D1720252&database=RX&origin=ReaxysOutput&ln=,(1841 of 4000),10326-41-7,D-Lactic acid,(HO)CH(CH3)COOH,C3H6O3,90.0788,acyclic,,JVTAAEKCZFNVCJ-UWTATZPHSA-N,,,,Identification(792); Physical Data(46); Spectra(38); Bioactivity(178),330.0,1171.0,52.8,diethyl ether; diisopropyl ether,,,,,Article; Borsook; Huffman; Liu; Journal of Biological Chemistry; vol. 102; (1933); p. 458;,https://www.reaxys.com/reaxys/secured/hopinto.do?context=C&query=CNR.CNR%3D1479983&database=RX&origin=ReaxysOutput&ln=
,[H][C@@](O)(CO)C=O,1720474.0,https://www.reaxys.com/reaxys/secured/hopinto.do?context=S&query=IDE.XRN%3D1720474&database=RX&origin=ReaxysOutput&ln=,(1842 of 4000),453-17-8,D-Glyceraldehyde,C3H6O3,C3H6O3,90.0788,acyclic,,MNQZXJOMYWMBOU-VKHMYHEASA-N,,,,Identification(39); Physical Data(19); Spectra(19); Bioactivity(25),219.0,195.0,194 - 198,,,,,,"Article; Morgenlie; Acta Chemica Scandinavica (1947); vol. 27; (1973); p. 1557,1562,1563;",https://www.reaxys.com/reaxys/secured/hopinto.do?context=C&query=CNR.CNR%3D3386196&database=RX&origin=ReaxysOutput&ln=
,OCC(=O)CO,1740268.0,https://www.reaxys.com/reaxys/secured/hopinto.do?context=S&query=IDE.XRN%3D1740268&database=RX&origin=ReaxysOutput&ln=,(1843 of 4000),96-26-4,dihydroxyacetone,OHCH2C(O)CH2OH,C3H6O3,90.0788,acyclic,,RXKJFZQQPQGTFL-UHFFFAOYSA-N,,,,Identification(2709); Physical Data(56); Spectra(70); Bioactivity(242),1127.0,3587.0,90,,,,,,"Article; Gogoi, Pranjal; Sarmah, Gautam Kumar; Konwar, Dilip; Journal of Organic Chemistry; vol. 69; 15; (2004); p. 5153 - 5154;",https://www.reaxys.com/reaxys/secured/hopinto.do?context=C&query=CNR.CNR%3D6469117&database=RX&origin=ReaxysOutput&ln=