Structure: Image,SMILES,Substance Identification: Reaxys Registry Number,Links to Reaxys,Data Count,CAS Registry Number,Chemical Name,Linear Structure Formula,Molecular Formula,Molecular Weight,Type of Substance,Type and Modification,InChI Key,Composition: Comp. Name,Composition: Comp. Conc.,Composition: Comp. Attrib.,Field Availability,Number of Reactions,Number of References,Melting Point: Melting Point [C],Solvent (Melting Point),Location,Comment (Melting Point),Crystallizes With,Amount (Melting Point) [mol],References,Links to Reaxys.1
,NCCCCN,605282.0,https://www.reaxys.com/reaxys/secured/hopinto.do?context=S&query=IDE.XRN%3D605282&database=RX&origin=ReaxysOutput&ln=,(1702 of 4000),110-60-1,"1,4-diaminobutane; 1,4-butylenediamine",H2N(CH2CH2CH2CH2)NH2,C4H12N2,88.1527,acyclic,,KIDHWZJUCRJVML-UHFFFAOYSA-N,,,,Identification(9363); Physical Data(189); Spectra(64); Bioactivity(889),3443.0,12337.0,25,,supporting information,,,,"Article; Kumar, Vijith; Pilati, Tullio; Terraneo, Giancarlo; Ciancaleoni, Gianluca; Macchioni, Alceo; Resnati, Giuseppe; Metrangolo, Pierangelo; Angewandte Chemie - International Edition; vol. 57; 5; (2018); p. 1327 - 1331; Angew. Chem.; vol. 130; (2018); p. 1341 - 1345,5;",https://www.reaxys.com/reaxys/secured/hopinto.do?context=C&query=CNR.CNR%3D72910884&database=RX&origin=ReaxysOutput&ln=
,CC(C)(N)CN,773658.0,https://www.reaxys.com/reaxys/secured/hopinto.do?context=S&query=IDE.XRN%3D773658&database=RX&origin=ReaxysOutput&ln=,(1703 of 4000),811-93-8,"1,1-dimethylethylenediamine; 1,2-Diamino-2-methylpropane; 2-Methylpropane-1,2-diamine",NH2CH2C(NH2)(CH3)CH3,C4H12N2,88.1527,acyclic,,OPCJOXGBLDJWRM-UHFFFAOYSA-N,,,,Identification(116); Physical Data(43); Spectra(9),539.0,505.0,-17.05,,,,,,"Article; Messerly et al.; Journal of Chemical Thermodynamics; vol. 7; (1975); p. 1029,1033,1035-1037,1039,;",https://www.reaxys.com/reaxys/secured/hopinto.do?context=C&query=CNR.CNR%3D4285089&database=RX&origin=ReaxysOutput&ln=
,CNCCNC,878142.0,https://www.reaxys.com/reaxys/secured/hopinto.do?context=S&query=IDE.XRN%3D878142&database=RX&origin=ReaxysOutput&ln=,(1704 of 4000),110-70-3,"sym-dimethylethylenediamine; N,N`-dimethylethylenediamine",NH(CH3)(CH2)2NHCH3,C4H12N2,88.1527,acyclic,,KVKFRMCSXWQSNT-UHFFFAOYSA-N,,,,Identification(645); Physical Data(61); Spectra(86); Bioactivity(107),1761.0,2015.0,112 - 115,,,,,,"Patent; SOMIN; FOMINA; SU458542; (1975); A1; Ref. Zh., Khim.; vol. 6; N81P; (1976); Ref. Zh., Khim.; vol. 6; N81P; (1976);",https://www.reaxys.com/reaxys/secured/hopinto.do?context=C&query=CNR.CNR%3D4108489&database=RX&origin=ReaxysOutput&ln=
,[H][C@](C)(N)[C@]([H])(C)N,1718890.0,https://www.reaxys.com/reaxys/secured/hopinto.do?context=S&query=IDE.XRN%3D1718890&database=RX&origin=ReaxysOutput&ln=,(1705 of 4000),20759-15-3; 948906-21-6,"meso-2,3-diaminobutane",CH3CH(NH2)CH(NH2)CH3,C4H12N2,88.1527,acyclic,,GHWVXCQZPNWFRO-ZXZARUISSA-N,,,,Identification(19); Physical Data(12); Spectra(5),33.0,34.0,-24 - -22,,,,,,Article; Dickey; Fickett; Lucas; Journal of the American Chemical Society; vol. 74; (1952); p. 947;,https://www.reaxys.com/reaxys/secured/hopinto.do?context=C&query=CNR.CNR%3D1239341&database=RX&origin=ReaxysOutput&ln=
,[H][C@@](C)(N)[C@]([H])(C)N,1718892.0,https://www.reaxys.com/reaxys/secured/hopinto.do?context=S&query=IDE.XRN%3D1718892&database=RX&origin=ReaxysOutput&ln=,(1706 of 4000),20699-48-3,"rac-2,3-diaminobutane; dl-2,3-diaminobutane; racemic 2,3-diaminobutane; (+/-)-2,3-diaminobutane; (+/-)-2,3-Diaminobutan-hydrochlorid; racem.-2,3-diamino-butane; (R*,R*)-(+/-)-2,3-butanediamine; racem.-2,3-Diamino-butan",C4H12N2,C4H12N2,88.1527,acyclic,racemate,GHWVXCQZPNWFRO-IMJSIDKUSA-N,,,,Identification(17); Physical Data(13); Spectra(3),25.0,24.0,-22 - -21,,,,,,Article; Dickey; Fickett; Lucas; Journal of the American Chemical Society; vol. 74; (1952); p. 947;,https://www.reaxys.com/reaxys/secured/hopinto.do?context=C&query=CNR.CNR%3D1239341&database=RX&origin=ReaxysOutput&ln=
,CCCCNN,1731267.0,https://www.reaxys.com/reaxys/secured/hopinto.do?context=S&query=IDE.XRN%3D1731267&database=RX&origin=ReaxysOutput&ln=,(1707 of 4000),3530-11-8,butylhydrazine; N-butylhydrazine,C4H9NHNH2,C4H12N2,88.1527,acyclic,,XKLVLDXNZDIDKQ-UHFFFAOYSA-N,,,,Identification(28); Physical Data(13); Spectra(6); Bioactivity(5),132.0,99.0,167 - 170,,,,,,Patent; CORTEVA INC; EP361645; (1993); B1;,https://www.reaxys.com/reaxys/secured/hopinto.do?context=C&query=CNR.CNR%3D238922&database=RX&origin=ReaxysOutput&ln=
,CCN(N)CC,1731365.0,https://www.reaxys.com/reaxys/secured/hopinto.do?context=S&query=IDE.XRN%3D1731365&database=RX&origin=ReaxysOutput&ln=,(1708 of 4000),616-40-0,"N,N-diethylhydrazine; 1,1-diethylhydrazine",NH2N(C2H5)2,C4H12N2,88.1527,acyclic,,IFZHGQSUNAKKSN-UHFFFAOYSA-N,,,,Identification(21); Physical Data(48); Spectra(5); Bioactivity(8),194.0,143.0,43,,,,,,"Article; Ohme,R.; Preuschhof,H.; Justus Liebigs Annalen der Chemie; vol. 713; (1968); p. 74 - 86;",https://www.reaxys.com/reaxys/secured/hopinto.do?context=C&query=CNR.CNR%3D78593&database=RX&origin=ReaxysOutput&ln=
,CCNNCC,1731367.0,https://www.reaxys.com/reaxys/secured/hopinto.do?context=S&query=IDE.XRN%3D1731367&database=RX&origin=ReaxysOutput&ln=,(1709 of 4000),1615-80-1,"N,N'-diethylhydrazine; 1,2-Diethylhydrazine; N-ethylaminoethylamine",CH3CH2NHNHCH2CH3,C4H12N2,88.1527,acyclic,,YCBOYOYVDOUXLH-UHFFFAOYSA-N,,,,Identification(17); Physical Data(19); Spectra(5); Bioactivity(7),60.0,68.0,168,,,,,,Article; Druckvey et al.; Naturwissenschaften; vol. 53; (1966); p. 557;,https://www.reaxys.com/reaxys/secured/hopinto.do?context=C&query=CNR.CNR%3D4283044&database=RX&origin=ReaxysOutput&ln=
,CN(C)N(C)C,1731483.0,https://www.reaxys.com/reaxys/secured/hopinto.do?context=S&query=IDE.XRN%3D1731483&database=RX&origin=ReaxysOutput&ln=,(1710 of 4000),6415-12-9,tetramethylhydrazine,(CH3)4N2,C4H12N2,88.1527,acyclic,,DHBZRQXIRAEMRO-UHFFFAOYSA-N,,,,Identification(47); Physical Data(54); Spectra(20); Bioactivity(7),46.0,121.0,-104,,,,,,Article; Aylett; Journal of the Chemical Society; (1957); p. 4152;,https://www.reaxys.com/reaxys/secured/hopinto.do?context=C&query=CNR.CNR%3D1275306&database=RX&origin=ReaxysOutput&ln=
,C[C@H]1S[C@H]1C,79774.0,https://www.reaxys.com/reaxys/secured/hopinto.do?context=S&query=IDE.XRN%3D79774&database=RX&origin=ReaxysOutput&ln=,(1711 of 4000),5954-71-2,"(2R,3S)-dimethylthiirane; cis-2,3-dimethylthiirane; cis-2-Butenepisulfid; cis-Buten-(2)-episulfid",(CH3)CHSCH(CH3),C4H8S,88.1735,heterocyclic,,ZMJBHCIEMIVIFZ-ZXZARUISSA-N,,,,Identification(7); Physical Data(21); Spectra(5),25.0,28.0,-66,,,,,,"Article; Sunner,S.; &lt;Lund 1949&gt; S. 67;",https://www.reaxys.com/reaxys/secured/hopinto.do?context=C&query=CNR.CNR%3D564650&database=RX&origin=ReaxysOutput&ln=
,C[C@@H]1S[C@H]1C,79775.0,https://www.reaxys.com/reaxys/secured/hopinto.do?context=S&query=IDE.XRN%3D79775&database=RX&origin=ReaxysOutput&ln=,(1712 of 4000),70492-83-0,"trans-2,3-dimethylthiirane",(CH3)CHSCH(CH3),C4H8S,88.1735,heterocyclic,racemate,ZMJBHCIEMIVIFZ-IMJSIDKUSA-N,,,,Identification(10); Physical Data(14); Spectra(3),26.0,20.0,-97,,,,,,"Article; Sunner,S.; &lt;Lund 1949&gt; S. 67;",https://www.reaxys.com/reaxys/secured/hopinto.do?context=C&query=CNR.CNR%3D564650&database=RX&origin=ReaxysOutput&ln=
,CC1CSC1,102388.0,https://www.reaxys.com/reaxys/secured/hopinto.do?context=S&query=IDE.XRN%3D102388&database=RX&origin=ReaxysOutput&ln=,(1713 of 4000),22438-40-0,3-Methyl-thiacyclobutan,CH3CH(CH2)2S,C4H8S,88.1735,heterocyclic,,AICMILUQCQAHLV-UHFFFAOYSA-N,,,,Identification(13); Physical Data(10); Spectra(5),7.0,15.0,-83.5,,,,,,"Article; Lanum; Morris; Journal of Chemical and Engineering Data; vol. 14; (1969); p. 93,97;",https://www.reaxys.com/reaxys/secured/hopinto.do?context=C&query=CNR.CNR%3D2829277&database=RX&origin=ReaxysOutput&ln=
,C1CCSC1,102392.0,https://www.reaxys.com/reaxys/secured/hopinto.do?context=S&query=IDE.XRN%3D102392&database=RX&origin=ReaxysOutput&ln=,(1714 of 4000),110-01-0,tetrahydrothiophen; thiophene,CH2CH2CH2CH2S,C4H8S,88.1735,heterocyclic,,RAOIDOHSFRTOEL-UHFFFAOYSA-N,,,,Identification(233); Physical Data(280); Spectra(80); Bioactivity(82),1562.0,1574.0,118 - 119,,,,,,"Article; Kamijo, Haruo; Takido, Toshio; Nakazawa, Toshikatsu; Itabashi, Kunio; Seno, Manabu; Phosphorus, Sulfur and Silicon and the Related Elements; vol. 82; 1-4; (1993); p. 207 - 210;",https://www.reaxys.com/reaxys/secured/hopinto.do?context=C&query=CNR.CNR%3D5846484&database=RX&origin=ReaxysOutput&ln=
,CC1(C)CS1,102409.0,https://www.reaxys.com/reaxys/secured/hopinto.do?context=S&query=IDE.XRN%3D102409&database=RX&origin=ReaxysOutput&ln=,(1715 of 4000),3772-13-2,"2,2-dimethylthiirane; isobutylene sulfide",(CH3)2CCH2S,C4H8S,88.1735,heterocyclic,,HGJOFJDIHKHKAU-UHFFFAOYSA-N,,,,Identification(30); Physical Data(22); Spectra(4),106.0,79.0,-74,,,,,,"Article; Sunner,S.; &lt;Lund. 1949&gt; S. 67;",https://www.reaxys.com/reaxys/secured/hopinto.do?context=C&query=CNR.CNR%3D564611&database=RX&origin=ReaxysOutput&ln=
,C\C=C/CS,1719376.0,https://www.reaxys.com/reaxys/secured/hopinto.do?context=S&query=IDE.XRN%3D1719376&database=RX&origin=ReaxysOutput&ln=,(1716 of 4000),878652-88-1,(Z)-2-butene-1-thiol; but-2c-ene-1-thiol; But-2c-en-1-thiol,C4H8S,C4H8S,88.1735,acyclic,,PSKWBKFCLVNPMT-IHWYPQMZSA-N,,,,Identification(10); Physical Data(3); Spectra(1),6.0,5.0,-112.4,,,,,,"Article; Birch; McAllan; Journal of the Chemical Society; (1951); p. 2556,2561;",https://www.reaxys.com/reaxys/secured/hopinto.do?context=C&query=CNR.CNR%3D565442&database=RX&origin=ReaxysOutput&ln=
,C\C=C\CS,1719377.0,https://www.reaxys.com/reaxys/secured/hopinto.do?context=S&query=IDE.XRN%3D1719377&database=RX&origin=ReaxysOutput&ln=,(1717 of 4000),58688-79-2,(E)-2-butene-1-thiol; but-2-ene-1-thiol; crotyl thiol; But-2t-en-1-thiol; trans-But-2-en-1-thiol; but-2t-ene-1-thiol; trans-2-butene-1-thiol; trans-2-butenethiol; 2-butenylmercaptan; crotyl mercaptan,C4H8S,C4H8S,88.1735,acyclic,,PSKWBKFCLVNPMT-NSCUHMNNSA-N,,,,Identification(12); Physical Data(5); Spectra(7),14.0,15.0,128 - 130,,,,,,Patent; ELI LILLY &amp; CO; EP773027; (1997); A1;; ; Patent; ELI LILLY &amp; CO; US5998404; (1999); A;; ; Patent; ELI LILLY &amp; CO; US5888999; (1999); A;,https://www.reaxys.com/reaxys/secured/hopinto.do?context=C&query=CNR.CNR%3D11540&database=RX&origin=ReaxysOutput&ln=
,CC(=C)CS,1734649.0,https://www.reaxys.com/reaxys/secured/hopinto.do?context=S&query=IDE.XRN%3D1734649&database=RX&origin=ReaxysOutput&ln=,(1718 of 4000),5954-68-7,2-methyl-2-propenethiol; 2-Methyl-2-propen-1-thiol; 2-methylprop-2-ene-1-thiol,C4H8S,C4H8S,88.1735,acyclic,,UFJYVTQALAAQEQ-UHFFFAOYSA-N,,,,Identification(8); Physical Data(10); Spectra(7),42.0,25.0,91 - 92,,,,,,"Article; Kondo,K.; Negishi,A.; Tetrahedron; vol. 27; (1971); p. 4821 - 4830;",https://www.reaxys.com/reaxys/secured/hopinto.do?context=C&query=CNR.CNR%3D90620&database=RX&origin=ReaxysOutput&ln=
,C[Si](C)(C)C,1696908.0,https://www.reaxys.com/reaxys/secured/hopinto.do?context=S&query=IDE.XRN%3D1696908&database=RX&origin=ReaxysOutput&ln=,(1719 of 4000),75-76-3,tetramethylsilane,CH3Si(CH3)3,C4H12Si,88.2248,acyclic,,CZDYPVPMEAXLPK-UHFFFAOYSA-N,,,,Identification(136); Physical Data(340); Spectra(308); Bioactivity(48),525.0,959.0,-91.1,,,,,,"Article; Liu,E.K.S.; Lagow,R.J.; Journal of Organometallic Chemistry; vol. 145; (1978); p. 167 - 182;",https://www.reaxys.com/reaxys/secured/hopinto.do?context=C&query=CNR.CNR%3D287020&database=RX&origin=ReaxysOutput&ln=
,CC[SiH2]CC,1730902.0,https://www.reaxys.com/reaxys/secured/hopinto.do?context=S&query=IDE.XRN%3D1730902&database=RX&origin=ReaxysOutput&ln=,(1720 of 4000),542-91-6,H2SiEt2; Diethylsilan,H2Si(CH3CH2)2,C4H12Si,88.2248,acyclic,,UCXUKTLCVSGCNR-UHFFFAOYSA-N,,,,Identification(124); Physical Data(58); Spectra(38),1427.0,468.0,-134.39,,,,,,Article; Tannenbaum; Kaye; Lewenz; Journal of the American Chemical Society; vol. 75; (1953); p. 3756;,https://www.reaxys.com/reaxys/secured/hopinto.do?context=C&query=CNR.CNR%3D1250647&database=RX&origin=ReaxysOutput&ln=
,CCCC[SiH3],1730905.0,https://www.reaxys.com/reaxys/secured/hopinto.do?context=S&query=IDE.XRN%3D1730905&database=RX&origin=ReaxysOutput&ln=,(1721 of 4000),1600-29-9,n-butylsilane; butylsilane,CH3(CH2)3SiH3,C4H12Si,88.2248,acyclic,,YXMVRBZGTJFMLH-UHFFFAOYSA-N,,,,Identification(29); Physical Data(38); Spectra(20),85.0,89.0,-138.24,,,,,,Article; Tannenbaum; Kaye; Lewenz; Journal of the American Chemical Society; vol. 75; (1953); p. 3756;,https://www.reaxys.com/reaxys/secured/hopinto.do?context=C&query=CNR.CNR%3D1250647&database=RX&origin=ReaxysOutput&ln=
,ClC#CC=O,2036428.0,https://www.reaxys.com/reaxys/secured/hopinto.do?context=S&query=IDE.XRN%3D2036428&database=RX&origin=ReaxysOutput&ln=,(1724 of 4000),39695-58-4,chloropropynal,C3HClO,C3HClO,88.4933,acyclic,,KSLQGRKDVSKAHA-UHFFFAOYSA-N,,,,Identification(7); Physical Data(3); Spectra(3),3.0,5.0,-2 - 0,,,,,,Article; Lagset et al.; Spectrochimica Acta Part A: Molecular and Biomolecular Spectroscopy; vol. 29; (1973); p. 17;,https://www.reaxys.com/reaxys/secured/hopinto.do?context=C&query=CNR.CNR%3D4005500&database=RX&origin=ReaxysOutput&ln=
,ClC(=C)C=C,741875.0,https://www.reaxys.com/reaxys/secured/hopinto.do?context=S&query=IDE.XRN%3D741875&database=RX&origin=ReaxysOutput&ln=,(1725 of 4000),126-99-8,"chloroprene; 2 chloro 1,3 butadiene; 2-chlorobuta-1,3-diene",CH2C(Cl)CHCH2,C4H5Cl,88.5367,acyclic,,YACLQRRMGMJLJV-UHFFFAOYSA-N,,,,Identification(829); Physical Data(81); Spectra(34); Bioactivity(83),514.0,1253.0,58,,,,,,"Article; Inukai,T.; Kojima,T.; Journal of Organic Chemistry; vol. 36; (1971); p. 924 - 928;",https://www.reaxys.com/reaxys/secured/hopinto.do?context=C&query=CNR.CNR%3D185549&database=RX&origin=ReaxysOutput&ln=
,N#CB(C#N)C#N,1742971.0,https://www.reaxys.com/reaxys/secured/hopinto.do?context=S&query=IDE.XRN%3D1742971&database=RX&origin=ReaxysOutput&ln=,(1726 of 4000),5731-85-1,boron tricyanide; boranetricarbonitrile; Borcyanid; Borantricarbonitril,BC3N3,C3BN3,88.8641,acyclic,,KRMWWXRVCCZQQO-UHFFFAOYSA-N,,,,Identification(6); Physical Data(6); Spectra(6),6.0,6.0,146.5,,,geschlossene Kapillare.,,,Article; Chaigneau; Comptes Rendus Hebdomadaires des Seances de l'Academie des Sciences; vol. 239; (1954); p. 1220;,https://www.reaxys.com/reaxys/secured/hopinto.do?context=C&query=CNR.CNR%3D1494782&database=RX&origin=ReaxysOutput&ln=
,CN.BC(O)=O,13506899.0,https://www.reaxys.com/reaxys/secured/hopinto.do?context=S&query=IDE.XRN%3D13506899&database=RX&origin=ReaxysOutput&ln=,(1727 of 4000),,methylamine-carboxyborane,NH2(CH3)*BH2COOH,CH3BO2*CH5N,88.902,Coordination compound,,RRMCILTYBQCEHE-UHFFFAOYSA-N,,,,Identification(5); Physical Data(2); Spectra(2),2.0,3.0,108 - 109,,,,,,Patent; GOVERNMENT OF THE UNITED STATES; US4855493; (1989); A;,https://www.reaxys.com/reaxys/secured/hopinto.do?context=C&query=CNR.CNR%3D7109623&database=RX&origin=ReaxysOutput&ln=
,[H]N([H])[H].BC(=O)OC,17399442.0,https://www.reaxys.com/reaxys/secured/hopinto.do?context=S&query=IDE.XRN%3D17399442&database=RX&origin=ReaxysOutput&ln=,(1728 of 4000),92009-78-4,ammonia-carboxmethoxyborane,NH3*BH2COOCH3,C2H5BO2*H3N,88.902,,,DSVPTPXKGOQDDQ-UHFFFAOYSA-N,,,,Identification(5); Physical Data(1); Spectra(3),1.0,1.0,92 - 93,,,,,,"Article; Spielvogel, Bernard F.; Ahmed, Fahim U.; Silvey, Gary L.; Wisian-Neilson, Patty; McPhail, Andrew T.; Inorganic Chemistry; vol. 23; 25; (1984); p. 4322 - 4324; (from Gmelin)",https://www.reaxys.com/reaxys/secured/hopinto.do?context=C&query=CNR.CNR%3D7974522&database=RX&origin=ReaxysOutput&ln=
,CB(F)N(C)C,1731905.0,https://www.reaxys.com/reaxys/secured/hopinto.do?context=S&query=IDE.XRN%3D1731905&database=RX&origin=ReaxysOutput&ln=,(1729 of 4000),430-82-0,Dimethylamino-methyl-bor-fluorid,CH3BFN(CH3)2,C3H9BFN,88.9206,acyclic,,ZRZJLCYSBZMWSC-UHFFFAOYSA-N,,,,Identification(6); Physical Data(9); Spectra(13),5.0,13.0,33,,,,,,"Article; Wiberg, E.; Horeld, G.; Zeitschrift fur Naturforschung; vol. 6 b; (1951); p. 338 - 339;; ; Article; Gmelin Handbuch der Anorganischen Chemie; vol. B: B-Verb.4; 4.7, page 149 - 157; (from Gmelin)",https://www.reaxys.com/reaxys/secured/hopinto.do?context=C&query=CNR.CNR%3D7665467&database=RX&origin=ReaxysOutput&ln=
,[H]B([H])[H].CON(C)C,3666606.0,https://www.reaxys.com/reaxys/secured/hopinto.do?context=S&query=IDE.XRN%3D3666606&database=RX&origin=ReaxysOutput&ln=,(1730 of 4000),,trimethyl-hydroxylamine; compound with borane; Trimethyl-hydroxylamin; Verbindung mit Boran,C3H9NO*BH3,BH3*C3H9NO,88.9454,acyclic,,WNEGPUOIIVBCKU-UHFFFAOYSA-N,,,,Identification(5); Physical Data(2),,1.0,-16.5 - -16,,,,,,"Article; Bissot et al.; Journal of the American Chemical Society; vol. 80; (1958); p. 1868,1869,1870;",https://www.reaxys.com/reaxys/secured/hopinto.do?context=C&query=CNR.CNR%3D1275073&database=RX&origin=ReaxysOutput&ln=
,[H+].[BH4-].CNC(N)=N,20347725.0,https://www.reaxys.com/reaxys/secured/hopinto.do?context=S&query=IDE.XRN%3D20347725&database=RX&origin=ReaxysOutput&ln=,(1732 of 4000),,methyl guanidinium borohydride,BH4(1-)*C2H7N3*H(1+),BH4*C2H7N3*H,88.9484,,,ZSRGMAHUDTWQKT-UHFFFAOYSA-O,,,,Identification(6); Physical Data(5); Spectra(4),2.0,2.0,-5,,,,,,"Article; Doroodian, Amir; Dengler, Joachim E.; Genest, Alexander; Roesch, Notker; Rieger, Bernhard; Angewandte Chemie - International Edition; vol. 49; 10; (2010); p. 1871 - 1873; (from Gmelin)",https://www.reaxys.com/reaxys/secured/hopinto.do?context=C&query=CNR.CNR%3D8881312&database=RX&origin=ReaxysOutput&ln=
,FC(=O)N=C=O,1849964.0,https://www.reaxys.com/reaxys/secured/hopinto.do?context=S&query=IDE.XRN%3D1849964&database=RX&origin=ReaxysOutput&ln=,(1734 of 4000),15435-14-0,fluorocarbonyl isocyanate; Fluorcarbonylisocyanat,FCONCO,C2FNO2,89.0259,acyclic,,NYYGGNURFAOLKJ-UHFFFAOYSA-N,,,,Identification(15); Physical Data(13); Spectra(23),20.0,25.0,-100 - -98,,,,,,"Article; Glemser, O.; Biermann, U.; Fild, M.; Chemische Berichte; vol. 100; (1967); p. 1082 - 1086;; ; Article; Gmelin Handbuch der Anorganischen Chemie; vol. F: PerFHalOrg.9; 7.3, page 102 - 124; (from Gmelin)",https://www.reaxys.com/reaxys/secured/hopinto.do?context=C&query=CNR.CNR%3D7720175&database=RX&origin=ReaxysOutput&ln=
,ON=CC(O)=O,1720560.0,https://www.reaxys.com/reaxys/secured/hopinto.do?context=S&query=IDE.XRN%3D1720560&database=RX&origin=ReaxysOutput&ln=,(1735 of 4000),3545-80-0,hydroxyiminoacetic acid; 2-(hydroxyimino)acetic acid; glyoxylic acid aldoxime; glyoxylic acid oxime,HO2CCHNOH,C2H3NO3,89.0507,acyclic,,PBZUAIHRZUBBAJ-UHFFFAOYSA-N,,,,Identification(19); Physical Data(27); Spectra(9),59.0,52.0,139.8 - 142.2,,Paragraph 0024,,,,Patent; HANGZHOU OUCHEN TECH; CN113735791; (2021); A;,https://www.reaxys.com/reaxys/secured/hopinto.do?context=C&query=CNR.CNR%3D108083470&database=RX&origin=ReaxysOutput&ln=
,O\N=C/C(O)=O,1720561.0,https://www.reaxys.com/reaxys/secured/hopinto.do?context=S&query=IDE.XRN%3D1720561&database=RX&origin=ReaxysOutput&ln=,(1736 of 4000),62812-66-2,Glyoxylsaeureoxim; (Z)-hydroxyimino-acetic acid; (Z)-Hydroxyimino-essigsaeure,C2H3NO3,C2H3NO3,89.0507,acyclic,,PBZUAIHRZUBBAJ-IWQZZHSRSA-N,,,,Identification(6); Physical Data(1),2.0,3.0,137 - 138,,,,,,"Article; Stevens; Emery; Biochemistry; vol. 5; (1966); p. 74,75;",https://www.reaxys.com/reaxys/secured/hopinto.do?context=C&query=CNR.CNR%3D4305293&database=RX&origin=ReaxysOutput&ln=
,O\N=C\C(O)=O,1720562.0,https://www.reaxys.com/reaxys/secured/hopinto.do?context=S&query=IDE.XRN%3D1720562&database=RX&origin=ReaxysOutput&ln=,(1737 of 4000),168208-95-5,glyoxylic acid aldoxime; glyoxalic acid oxime; glyoxilic acid oxime; (E)-hydroxyimino-acetic acid; (E)-Hydroxyimino-essigsaeure; (hydroxyimino)acetic acid; hydroxyiminodiacetic acid; oximinoacetic acid,C2H3NO3,C2H3NO3,89.0507,acyclic,,PBZUAIHRZUBBAJ-HNQUOIGGSA-N,,,,Identification(11); Physical Data(4); Spectra(2),9.0,10.0,139,,,,,,"Article; Armand,J.; Guette,J.-P.; Bulletin de la Societe Chimique de France; (1969); p. 2894 - 2900;",https://www.reaxys.com/reaxys/secured/hopinto.do?context=C&query=CNR.CNR%3D119783&database=RX&origin=ReaxysOutput&ln=