Structure: Image,SMILES,Substance Identification: Reaxys Registry Number,Links to Reaxys,Data Count,CAS Registry Number,Chemical Name,Linear Structure Formula,Molecular Formula,Molecular Weight,Type of Substance,Type and Modification,InChI Key,Composition: Comp. Name,Composition: Comp. Conc.,Composition: Comp. Attrib.,Field Availability,Number of Reactions,Number of References,Melting Point: Melting Point [C],Solvent (Melting Point),Location,Comment (Melting Point),Crystallizes With,Amount (Melting Point) [mol],References,Links to Reaxys.1
,[H][Al]([H])N(C)C,3924930.0,https://www.reaxys.com/reaxys/secured/hopinto.do?context=S&query=IDE.XRN%3D3924930&database=RX&origin=ReaxysOutput&ln=,(662 of 4000),865-45-2,Dimethylamino-alan,H2AlN(CH3)2,C2H8AlN,73.0738,acyclic,,YHAYIJLQKPMRAW-UHFFFAOYSA-N,,,,Identification(10); Physical Data(7); Spectra(2),5.0,14.0,93 - 94,,,,,,"Article; Ehrlich, Robert; Inorganic Chemistry; vol. 9; 1; (1970); p. 146 - 150;",https://www.reaxys.com/reaxys/secured/hopinto.do?context=C&query=CNR.CNR%3D3933764&database=RX&origin=ReaxysOutput&ln=
,[H-].[Al+3].C[N-]C,4923955.0,https://www.reaxys.com/reaxys/secured/hopinto.do?context=S&query=IDE.XRN%3D4923955&database=RX&origin=ReaxysOutput&ln=,(663 of 4000),,dimethyl-amine; aluminium dimethylamide dihydride; Dimethyl-amin; Aluminium-dimethylamid-dihydrid,C2H6N(1-)*Al(3+)*2H(1-),Al*C2H6N*2H,73.0738,acyclic,,DTHBACCPCORASD-UHFFFAOYSA-N,,,,Identification(5); Physical Data(2),1.0,1.0,89 - 90,,,,,,Article; Wiberg; May; Zeitschrift fur Naturforschung; vol. 10b; (1955); p. 232;,https://www.reaxys.com/reaxys/secured/hopinto.do?context=C&query=CNR.CNR%3D1254510&database=RX&origin=ReaxysOutput&ln=
,C1COCN1,102468.0,https://www.reaxys.com/reaxys/secured/hopinto.do?context=S&query=IDE.XRN%3D102468&database=RX&origin=ReaxysOutput&ln=,(664 of 4000),504-76-7,"1,3-oxazolidine; oxazolidine; oxazolidine acid",C3H7NO,C3H7NO,73.0947,heterocyclic,,WYNCHZVNFNFDNH-UHFFFAOYSA-N,,,,Identification(600); Physical Data(15); Spectra(4),51.0,656.0,151 - 156,,,,,,Patent; Sandoz (in: Novartis); NOVARTIS AG; US4686237; (1987); A;,https://www.reaxys.com/reaxys/secured/hopinto.do?context=C&query=CNR.CNR%3D7104335&database=RX&origin=ReaxysOutput&ln=
,CN(C)C=O,605365.0,https://www.reaxys.com/reaxys/secured/hopinto.do?context=S&query=IDE.XRN%3D605365&database=RX&origin=ReaxysOutput&ln=,(665 of 4000),68-12-2; 33513-42-7,"N,N-dimethyl-formamide; Dimethylformamide; DMFA; dmf",HOCN(CH3)2,C3H7NO,73.0947,acyclic,,ZMXDDKWLCZADIW-UHFFFAOYSA-N,,,,Identification(9607); Physical Data(3020); Spectra(427); Bioactivity(2455),53597.0,43363.0,94 - 96,ethanol,,,,,"Article; Volchkov; Lipkind; Nefedov; Russian Chemical Bulletin; vol. 69; 2; (2020); p. 270 - 279; Izv. Akad. Nauk, Ser. Khim.; 2; (2020); p. 270 - 279,10;",https://www.reaxys.com/reaxys/secured/hopinto.do?context=C&query=CNR.CNR%3D79520443&database=RX&origin=ReaxysOutput&ln=
,CC(C)=NO,969234.0,https://www.reaxys.com/reaxys/secured/hopinto.do?context=S&query=IDE.XRN%3D969234&database=RX&origin=ReaxysOutput&ln=,(666 of 4000),127-06-0,acetone oxime,CH3(CNOH)CH3,C3H7NO,73.0947,acyclic,,PXAJQJMDEXJWFB-UHFFFAOYSA-N,,,,Identification(328); Physical Data(132); Spectra(112); Bioactivity(78),1407.0,1318.0,60 - 62,methanol,,,,,"Article; Kazemnejadi, Milad; Shakeri, Alireza; Mohammadi, Mohammad; Tabefam, Marzieh; Journal of the Iranian Chemical Society; vol. 14; 9; (2017); p. 1917 - 1933;",https://www.reaxys.com/reaxys/secured/hopinto.do?context=C&query=CNR.CNR%3D71793008&database=RX&origin=ReaxysOutput&ln=
,CCC(N)=O,969258.0,https://www.reaxys.com/reaxys/secured/hopinto.do?context=S&query=IDE.XRN%3D969258&database=RX&origin=ReaxysOutput&ln=,(667 of 4000),79-05-0,Propionamid; Propanamide,CH3CH2CONH2,C3H7NO,73.0947,acyclic,,QLNJFJADRCOGBJ-UHFFFAOYSA-N,,,,Identification(895); Physical Data(343); Spectra(101); Bioactivity(89),577.0,1625.0,167 - 168,,,,,,"Article; Khusnutdinov; Shchadneva; Mayakova, Yu. Yu.; Kashfetdinova; Khazipova; Russian Journal of Organic Chemistry; vol. 56; 12; (2020); p. 2109 - 2113; Zh. Org. Khim.; vol. 56; (2020); p. 2109 - 2113,5;",https://www.reaxys.com/reaxys/secured/hopinto.do?context=C&query=CNR.CNR%3D82626685&database=RX&origin=ReaxysOutput&ln=
,CNC(C)=O,1071255.0,https://www.reaxys.com/reaxys/secured/hopinto.do?context=S&query=IDE.XRN%3D1071255&database=RX&origin=ReaxysOutput&ln=,(668 of 4000),79-16-3,N-methyl-acetamide; methylacetamide,CH3CONH(CH3),C3H7NO,73.0947,acyclic,,OHLUUHNLEMFGTQ-UHFFFAOYSA-N,,,,Identification(1229); Physical Data(786); Spectra(367); Bioactivity(124),682.0,2365.0,204 - 206,,,,,,"Article; Kalkhambkar, Rajesh G.; Savanur, Hemantkumar M.; RSC Advances; vol. 5; 74; (2015); p. 60106 - 60113;",https://www.reaxys.com/reaxys/secured/hopinto.do?context=C&query=CNR.CNR%3D66631662&database=RX&origin=ReaxysOutput&ln=
,OCN1CC1,1340511.0,https://www.reaxys.com/reaxys/secured/hopinto.do?context=S&query=IDE.XRN%3D1340511&database=RX&origin=ReaxysOutput&ln=,(669 of 4000),20276-43-1,1-Hydroxymethyl-aziridin,C3H7NO,C3H7NO,73.0947,heterocyclic,,QWVWWHLWIKAICB-UHFFFAOYSA-N,,,,Identification(8); Physical Data(10); Spectra(2),5.0,9.0,33.8 - 34.6,diethyl ether,,,,,"Article; Kostjanowskii; Bystrow; Bulletin of the Academy of Sciences of the USSR Division of Chemical Science; (1962); p. 1404; Izvestiya Akademii Nauk SSSR, Seriya Khimicheskaya; (1962); p. 1488;",https://www.reaxys.com/reaxys/secured/hopinto.do?context=C&query=CNR.CNR%3D3232644&database=RX&origin=ReaxysOutput&ln=
,OC1CNC1,1523661.0,https://www.reaxys.com/reaxys/secured/hopinto.do?context=S&query=IDE.XRN%3D1523661&database=RX&origin=ReaxysOutput&ln=,(670 of 4000),45347-82-8,azetidine-3-ol; azetidin-3-ol; 3-hydroxy-azetidine; 3-azetidinol,C3H7NO,C3H7NO,73.0947,heterocyclic,,GMWFCJXSQQHBPI-UHFFFAOYSA-N,,,,Identification(89); Physical Data(12); Spectra(15),296.0,318.0,113.85 - 114.35,,,Method: subl. sample,,,"Article; Gajhede, Michael; Anthoni, Uffe; Christophersen, Carsten; Nielsen, Per Halfdan; Acta Crystallographica Section B: Structural Science; vol. 45; (1989); p. 562 - 566;",https://www.reaxys.com/reaxys/secured/hopinto.do?context=C&query=CNR.CNR%3D5672076&database=RX&origin=ReaxysOutput&ln=
,CCC=NO,1697966.0,https://www.reaxys.com/reaxys/secured/hopinto.do?context=S&query=IDE.XRN%3D1697966&database=RX&origin=ReaxysOutput&ln=,(671 of 4000),627-39-4,propionaldehyde oxime; propanal oxime; Propionaldoxim; propionaldoxime; propanaldoxime; Propionaldehyd-oxim,C2H5CHNOH,C3H7NO,73.0947,acyclic,,IFDZZSXEPSSHNC-UHFFFAOYSA-N,,,,Identification(38); Physical Data(51); Spectra(11),139.0,153.0,-20,,,,,,Article; Dunstan; Dymond; Journal of the Chemical Society; vol. 65; (1894); p. 216;,https://www.reaxys.com/reaxys/secured/hopinto.do?context=C&query=CNR.CNR%3D1299354&database=RX&origin=ReaxysOutput&ln=
,CC(N)C=O,1719825.0,https://www.reaxys.com/reaxys/secured/hopinto.do?context=S&query=IDE.XRN%3D1719825&database=RX&origin=ReaxysOutput&ln=,(672 of 4000),4744-12-1,(+/-)-2-Amino-propionaldehyd; DL-2-amino-propionaldehyde; 2-aminopropanal,C3H7NO,C3H7NO,73.0947,acyclic,,QPMCUNAXNMSGTK-UHFFFAOYSA-N,,,,Identification(35); Physical Data(1),10.0,36.0,92,,,,,,"Article; Citerio,L. et al.; Tetrahedron; vol. 35; (1979); p. 2453 - 2461;",https://www.reaxys.com/reaxys/secured/hopinto.do?context=C&query=CNR.CNR%3D94385&database=RX&origin=ReaxysOutput&ln=
,CC(=O)CN,1736668.0,https://www.reaxys.com/reaxys/secured/hopinto.do?context=S&query=IDE.XRN%3D1736668&database=RX&origin=ReaxysOutput&ln=,(673 of 4000),298-08-8,glycine methyl ketone,C3H7NO,C3H7NO,73.0947,acyclic,,BCDGQXUMWHRQCB-UHFFFAOYSA-N,,,,Identification(193); Physical Data(6); Spectra(8); Bioactivity(14),77.0,235.0,58 - 60,,supporting information,,,,"Article; Mizar, Pushpak; Wirth, Thomas; Angewandte Chemie - International Edition; vol. 53; 23; (2014); p. 5993 - 5997; Angew. Chem.; vol. 126; 23; (2014); p. 6103 - 6107,5;",https://www.reaxys.com/reaxys/secured/hopinto.do?context=C&query=CNR.CNR%3D63615135&database=RX&origin=ReaxysOutput&ln=
,COC(C)=N,1736771.0,https://www.reaxys.com/reaxys/secured/hopinto.do?context=S&query=IDE.XRN%3D1736771&database=RX&origin=ReaxysOutput&ln=,(674 of 4000),14777-29-8; 85273-25-2,methyl acetimidate; Acetimidsaeure-methylester; Methylacetimidat,HNC(OCH3)CH3,C3H7NO,73.0947,acyclic,,SJFKGZZCMREBQH-UHFFFAOYSA-N,,,,Identification(43); Physical Data(5); Spectra(15); Bioactivity(4),27.0,64.0,95 - 95.5,,,,,,Patent; BRISTOL-MYERS SQUIBB CO; DE1806169; (1969); A1; Chem.Abstr.; vol. 72; 3723k; (1970); Chem.Abstr.; vol. 72; 3723k; (1970);,https://www.reaxys.com/reaxys/secured/hopinto.do?context=C&query=CNR.CNR%3D3332030&database=RX&origin=ReaxysOutput&ln=
,CC(C)N=O,1737204.0,https://www.reaxys.com/reaxys/secured/hopinto.do?context=S&query=IDE.XRN%3D1737204&database=RX&origin=ReaxysOutput&ln=,(675 of 4000),920-40-1,2-Nitrosopropan,(CH3)2CHNO,C3H7NO,73.0947,acyclic,,NDEOFSCLJFPNSR-UHFFFAOYSA-N,,,,Identification(15); Physical Data(4); Spectra(2),6.0,17.0,50 - 51,,,,,,"Article; Bailey et al.; Journal of Organic Chemistry; vol. 43; (1978); p. 2657,2661;",https://www.reaxys.com/reaxys/secured/hopinto.do?context=C&query=CNR.CNR%3D4303856&database=RX&origin=ReaxysOutput&ln=
,CCOC=N,1737627.0,https://www.reaxys.com/reaxys/secured/hopinto.do?context=S&query=IDE.XRN%3D1737627&database=RX&origin=ReaxysOutput&ln=,(676 of 4000),44234-35-7,formimidic acid ethyl ester; ethyl formimidate; Formimidsaeure-aethylester,C3H7NO,C3H7NO,73.0947,acyclic,,HEZYPWDHDAPLSB-UHFFFAOYSA-N,,,,Identification(11); Physical Data(6),34.0,31.0,-18,,,,,,Article; Miller et al.; Journal of the American Chemical Society; vol. 74; (1952); p. 2892;,https://www.reaxys.com/reaxys/secured/hopinto.do?context=C&query=CNR.CNR%3D667026&database=RX&origin=ReaxysOutput&ln=
,ONCC=C,1738036.0,https://www.reaxys.com/reaxys/secured/hopinto.do?context=S&query=IDE.XRN%3D1738036&database=RX&origin=ReaxysOutput&ln=,(677 of 4000),52716-05-9,N-allylhydroxylamine,C3H7NO,C3H7NO,73.0947,acyclic,,LMWHOJSLACFBSG-UHFFFAOYSA-N,,,,Identification(11); Physical Data(1); Spectra(3),16.0,15.0,33 - 35,diethyl ether; pentane,,,,,"Article; Cheng,Y.S.; Lupo,A.T.; Fowler,F.W.; Journal of the American Chemical Society; vol. 105; (1983); p. 7696;",https://www.reaxys.com/reaxys/secured/hopinto.do?context=C&query=CNR.CNR%3D2375916&database=RX&origin=ReaxysOutput&ln=
,C\C(N)=N\N,969281.0,https://www.reaxys.com/reaxys/secured/hopinto.do?context=S&query=IDE.XRN%3D969281&database=RX&origin=ReaxysOutput&ln=,(678 of 4000),60576-61-6,Acetamidrazon,C2H7N3,C2H7N3,73.0977,acyclic,,MIDZOHILFFUXMZ-UHFFFAOYSA-N,,,,Identification(10); Physical Data(1),17.0,7.0,130,,,,,,"Article; Neunhoeffer; Weischedel; Justus Liebigs Annalen der Chemie; vol. 749; (1971); p. 16,17, 20;",https://www.reaxys.com/reaxys/secured/hopinto.do?context=C&query=CNR.CNR%3D2619151&database=RX&origin=ReaxysOutput&ln=
,CNN=NC,1698547.0,https://www.reaxys.com/reaxys/secured/hopinto.do?context=S&query=IDE.XRN%3D1698547&database=RX&origin=ReaxysOutput&ln=,(679 of 4000),3585-32-8; 115246-94-1; 115246-96-3; 467426-36-4,"1,3-dimethyltriazene",CH3NHNNCH3,C2H7N3,73.0977,acyclic,,SQUIUDMGPAPFHS-UHFFFAOYSA-N,,,,Identification(7); Physical Data(5); Spectra(3); Bioactivity(3),20.0,15.0,-12,,,,,,Article; Dimroth; Chemische Berichte; vol. 39; (1906); p. 3906;,https://www.reaxys.com/reaxys/secured/hopinto.do?context=C&query=CNR.CNR%3D1217921&database=RX&origin=ReaxysOutput&ln=
,CNC(N)=N,1738993.0,https://www.reaxys.com/reaxys/secured/hopinto.do?context=S&query=IDE.XRN%3D1738993&database=RX&origin=ReaxysOutput&ln=,(680 of 4000),471-29-4,1-methylguanidine; methylguanidine; N-methyl-guanidine,C2H7N3,C2H7N3,73.0977,acyclic,,CHJJGSNFBQVOTG-UHFFFAOYSA-N,,,,Identification(337); Physical Data(20); Spectra(13); Bioactivity(47),259.0,529.0,123 - 125,,,,,,"Article; Nishimura; Kitajima; Journal of Organic Chemistry; vol. 41; 9; (1976); p. 1590,1592;",https://www.reaxys.com/reaxys/secured/hopinto.do?context=C&query=CNR.CNR%3D2775870&database=RX&origin=ReaxysOutput&ln=
,CN=C=S,605319.0,https://www.reaxys.com/reaxys/secured/hopinto.do?context=S&query=IDE.XRN%3D605319&database=RX&origin=ReaxysOutput&ln=,(681 of 4000),556-61-6,methyl thioisocyanate; methyl isothiocyanate,CH3CNS,C2H3NS,73.1185,acyclic,,LGDSHSYDSCRFAB-UHFFFAOYSA-N,,,,Identification(624); Physical Data(77); Spectra(84); Bioactivity(177),3716.0,2826.0,35,,,,,,"Article; Liotta,D.; Engel,R.; Canadian Journal of Chemistry; vol. 53; (1975); p. 907 - 912;; ; Article; Nasini; Scala; Atti della Accademia Nazionale dei Lincei, Classe di Scienze Fisiche, Matematiche e Naturali, Rendiconti; vol. &lt;4&gt;2; (1886); p. 619,621; Gazzetta Chimica Italiana; vol. 17; (1887); p. 68,70;; ; Patent; EVONIK INDUSTRIES AG; CH624668; (1981); A5; Chem.Abstr.; vol. 87; 38871; Chem.Abstr.; vol. 87; 38871;; ; Patent; EVONIK INDUSTRIES AG; DE2603508; (1977); B1; Chem.Abstr.; vol. 87; 38871; Chem.Abstr.; vol. 87; 38871;",https://www.reaxys.com/reaxys/secured/hopinto.do?context=C&query=CNR.CNR%3D28181&database=RX&origin=ReaxysOutput&ln=
,CSC#N,1098357.0,https://www.reaxys.com/reaxys/secured/hopinto.do?context=S&query=IDE.XRN%3D1098357&database=RX&origin=ReaxysOutput&ln=,(682 of 4000),556-64-9,methyl thiocyanate,CH3SCN,C2H3NS,73.1185,acyclic,,VYHVQEYOFIYNJP-UHFFFAOYSA-N,,,,Identification(211); Physical Data(120); Spectra(55); Bioactivity(34),757.0,647.0,-54.4,,,,,,Article; Timmermans; Mattaar; Bulletin des Societes Chimiques Belges; vol. 30; (1921); p. 214; Chemisches Zentralblatt; vol. 92; III; (1921); p. 1266;,https://www.reaxys.com/reaxys/secured/hopinto.do?context=C&query=CNR.CNR%3D559456&database=RX&origin=ReaxysOutput&ln=
,[SiH3]N=C=O,1900894.0,https://www.reaxys.com/reaxys/secured/hopinto.do?context=S&query=IDE.XRN%3D1900894&database=RX&origin=ReaxysOutput&ln=,(683 of 4000),13730-13-7,silyl isocyanate,SiH3NCO,CH3NOSi,73.1264,acyclic,,BUZRAOJSFRKWPD-UHFFFAOYSA-N,,,,Identification(12); Physical Data(23); Spectra(24),6.0,40.0,-90,,,,,,"Article; Barrow, Michael J.; Ebsworth, E. A. V.; Harding, Marjorie M.; Journal of the Chemical Society, Dalton Transactions; (1980); p. 1838 - 1844; (from Gmelin)",https://www.reaxys.com/reaxys/secured/hopinto.do?context=C&query=CNR.CNR%3D5620362&database=RX&origin=ReaxysOutput&ln=
,CC(C)CN,385626.0,https://www.reaxys.com/reaxys/secured/hopinto.do?context=S&query=IDE.XRN%3D385626&database=RX&origin=ReaxysOutput&ln=,(684 of 4000),78-81-9,isobutylamine; 2-methyl-1-propanamine; i-Butylamine,CH3CHCH3CH2NH2,C4H11N,73.138,acyclic,,KDSNLYIMUZNERS-UHFFFAOYSA-N,,,,Identification(888); Physical Data(242); Spectra(67); Bioactivity(264),5836.0,5040.0,175,,,,,,"Article; Roques, Nans; Gerbier, Philippe; Teki, Yoshio; Choua, Sylvie; Lesniakova, Petra; Sutter, Jean-Pascal; Guionneau, Philippe; Guerin, Christian; New Journal of Chemistry; vol. 30; 9; (2006); p. 1319 - 1326;",https://www.reaxys.com/reaxys/secured/hopinto.do?context=C&query=CNR.CNR%3D6573149&database=RX&origin=ReaxysOutput&ln=
,CC(C)(C)N,605267.0,https://www.reaxys.com/reaxys/secured/hopinto.do?context=S&query=IDE.XRN%3D605267&database=RX&origin=ReaxysOutput&ln=,(685 of 4000),75-64-9,tert-butylamine; 2-amino-2-methylpropane; (t)BuNH2; NH2(t)Bu,(C(CH3)3)NH2,C4H11N,73.138,acyclic,,YBRBMKDOPFTVDT-UHFFFAOYSA-N,,,,Identification(1558); Physical Data(460); Spectra(76); Bioactivity(518),12726.0,10186.0,93.5 - 97,,,,,,Patent; CURIA INC; US6340760; (2002); B1;,https://www.reaxys.com/reaxys/secured/hopinto.do?context=C&query=CNR.CNR%3D8815080&database=RX&origin=ReaxysOutput&ln=
,CCNCC,605268.0,https://www.reaxys.com/reaxys/secured/hopinto.do?context=S&query=IDE.XRN%3D605268&database=RX&origin=ReaxysOutput&ln=,(686 of 4000),109-89-7,diethylamine,C2H5NHC2H5,C4H11N,73.138,acyclic,,HPNMFZURTQLUMO-UHFFFAOYSA-N,,,,Identification(935); Physical Data(1086); Spectra(107); Bioactivity(1089),28873.0,20976.0,-49,,,,,,Article; Dahmani; Ait Kaci; Jose; Journal de Chimie Physique et de Physico-Chimie Biologique; vol. 93; 11-12; (1996); p. 2001 - 2010;,https://www.reaxys.com/reaxys/secured/hopinto.do?context=C&query=CNR.CNR%3D6060861&database=RX&origin=ReaxysOutput&ln=
,CCCCN,605269.0,https://www.reaxys.com/reaxys/secured/hopinto.do?context=S&query=IDE.XRN%3D605269&database=RX&origin=ReaxysOutput&ln=,(687 of 4000),109-73-9,N-butylamine; 1-aminobutane; 1-Butylamine; butylamine,NH2CH2CH2CH2CH3,C4H11N,73.138,acyclic,,HQABUPZFAYXKJW-UHFFFAOYSA-N,,,,Identification(5234); Physical Data(1108); Spectra(109); Bioactivity(1045),19196.0,19625.0,-57,,,Crystallization with 0.5 Mol(s) H2O,,,"Article; Mootz, Dietrich; Born, Michael; Zeitschrift fur Naturforschung, B: Chemical Sciences; vol. 49; 2; (1994); p. 243 - 249;",https://www.reaxys.com/reaxys/secured/hopinto.do?context=C&query=CNR.CNR%3D5857211&database=RX&origin=ReaxysOutput&ln=
,CCC(C)N,1361345.0,https://www.reaxys.com/reaxys/secured/hopinto.do?context=S&query=IDE.XRN%3D1361345&database=RX&origin=ReaxysOutput&ln=,(688 of 4000),33966-50-6,SEC-BUTYLAMINE,NH2CH(CH3)CH2CH3,C4H11N,73.138,acyclic,,BHRZNVHARXXAHW-UHFFFAOYSA-N,,,,Identification(514); Physical Data(363); Spectra(52); Bioactivity(117),2109.0,2164.0,-77.5,,,Crystallization with 0.5 Mol(s) H2O,,,"Article; Favier, Roland; Rosso, Jean-Claude; Carbonnel, Luce; Bulletin de la Societe Chimique de France; vol. 1; 5-6; (1981); p. 225 - 235;",https://www.reaxys.com/reaxys/secured/hopinto.do?context=C&query=CNR.CNR%3D5666671&database=RX&origin=ReaxysOutput&ln=
,CCN(C)C,1696893.0,https://www.reaxys.com/reaxys/secured/hopinto.do?context=S&query=IDE.XRN%3D1696893&database=RX&origin=ReaxysOutput&ln=,(689 of 4000),598-56-1,"N,N-dimethyl-ethanamine; N,N-Dimethylethylamine",(CH3)2NC2H5,C4H11N,73.138,acyclic,,DAZXVJBJRMWXJP-UHFFFAOYSA-N,,,,Identification(228); Physical Data(79); Spectra(44); Bioactivity(28),325.0,506.0,-140,,,,,,"Article; Spialter; Pappalardo; Journal of Organic Chemistry; vol. 22; (1957); p. 840,842;",https://www.reaxys.com/reaxys/secured/hopinto.do?context=C&query=CNR.CNR%3D1256656&database=RX&origin=ReaxysOutput&ln=
,[2H]CC(C)(C)C,1730906.0,https://www.reaxys.com/reaxys/secured/hopinto.do?context=S&query=IDE.XRN%3D1730906&database=RX&origin=ReaxysOutput&ln=,(690 of 4000),4741-94-0,neopentane-d1,(CH3)3CCH2(2)H,C5H12,73.1423,acyclic; Isotope or isotope containing compound,,CRSOQBOWXPBRES-MICDWDOJSA-N,,,,Identification(7); Physical Data(4); Spectra(4),12.0,13.0,-22 - -21,,,ca. 50prozentiges Praeparat.,,,Article; Whitmore et al.; Journal of the American Chemical Society; vol. 56; (1934); p. 749;,https://www.reaxys.com/reaxys/secured/hopinto.do?context=C&query=CNR.CNR%3D1337378&database=RX&origin=ReaxysOutput&ln=
,[Cl-].[2H]C([2H])([2H])[N+]([2H])([2H])[2H],3700767.0,https://www.reaxys.com/reaxys/secured/hopinto.do?context=S&query=IDE.XRN%3D3700767&database=RX&origin=ReaxysOutput&ln=,(692 of 4000),,pentadeuterio-methylamine; trideuterio-trideuteriomethyl-ammonium chloride,C(2)H3N(2)H3(1+)*Cl(1-)=C(2)H3N(2)H3Cl,CH6N*Cl,73.4707,acyclic,,NQMRYBIKMRVZLB-MIOFBDNISA-N,,,,Identification(5); Physical Data(1),2.0,3.0,227 - 228,butan-1-ol,,,,,"Article; Leitch et al.; Canadian Journal of Research, Section B: Chemical Sciences; vol. 28; (1950); p. 256,262; Org.Synth.Isotopes; (1958); p. 1418;",https://www.reaxys.com/reaxys/secured/hopinto.do?context=C&query=CNR.CNR%3D1428474&database=RX&origin=ReaxysOutput&ln=
,CC[Be]Cl,3924952.0,https://www.reaxys.com/reaxys/secured/hopinto.do?context=S&query=IDE.XRN%3D3924952&database=RX&origin=ReaxysOutput&ln=,(693 of 4000),3536-99-0,ethylberyllium chloride,C2H5BeCl,C2H5BeCl,73.5269,acyclic,,ATZUWXJWKHZUGS-UHFFFAOYSA-M,,,,Identification(10); Physical Data(1); Spectra(2),2.0,2.0,175 - 179,,,,,,"Article; Atam; Dehnicke; Zeitschrift fur Anorganische und Allgemeine Chemie; vol. 427; (1976); p. 193,194;",https://www.reaxys.com/reaxys/secured/hopinto.do?context=C&query=CNR.CNR%3D4495646&database=RX&origin=ReaxysOutput&ln=