Structure: Image,SMILES,Substance Identification: Reaxys Registry Number,Links to Reaxys,Data Count,CAS Registry Number,Chemical Name,Linear Structure Formula,Molecular Formula,Molecular Weight,Type of Substance,Type and Modification,InChI Key,Composition: Comp. Name,Composition: Comp. Conc.,Composition: Comp. Attrib.,Field Availability,Number of Reactions,Number of References,Melting Point: Melting Point [C],Solvent (Melting Point),Location,Comment (Melting Point),Crystallizes With,Amount (Melting Point) [mol],References,Links to Reaxys.1
,B.N,13331145.0,https://www.reaxys.com/reaxys/secured/hopinto.do?context=S&query=IDE.XRN%3D13331145&database=RX&origin=ReaxysOutput&ln=,(65 of 4000),,ammonia borane; borane-ammonia,BH3*H3N,BH3*H3N,30.8653,Coordination compound,,WZMUUWMLOCZETI-UHFFFAOYSA-N,,,,Identification(8); Physical Data(20); Spectra(10),67.0,103.0,110 - 112,,supporting information,,,,"Article; McLean, Euan B.; Gauchot, Vincent; Brunen, Sebastian; Burns, David J.; Lee, Ai-Lan; Chemical Communications; vol. 55; 29; (2019); p. 4238 - 4241;",https://www.reaxys.com/reaxys/secured/hopinto.do?context=C&query=CNR.CNR%3D76477983&database=RX&origin=ReaxysOutput&ln=
,CN,741851.0,https://www.reaxys.com/reaxys/secured/hopinto.do?context=S&query=IDE.XRN%3D741851&database=RX&origin=ReaxysOutput&ln=,(68 of 4000),74-89-5,methylamine; Methanamine,NH2(CH3),CH5N,31.0574,acyclic,,BAVYZALUXZFZLV-UHFFFAOYSA-N,,,,Identification(1355); Physical Data(790); Spectra(196); Bioactivity(1526),41015.0,28255.0,-92,,,,,,Article; Talasek; Collection of Czechoslovak Chemical Communications; vol. 33; 3; (1968); p. 731;,https://www.reaxys.com/reaxys/secured/hopinto.do?context=C&query=CNR.CNR%3D5193516&database=RX&origin=ReaxysOutput&ln=
,O=O,3587218.0,https://www.reaxys.com/reaxys/secured/hopinto.do?context=S&query=IDE.XRN%3D3587218&database=RX&origin=ReaxysOutput&ln=,(69 of 4000),80937-33-3,oxygen,O2,O2,31.9988,Isotope or isotope containing compound,,MYMOFIZGZYHOMD-UHFFFAOYSA-N,,,,Identification(11654); Physical Data(11245); Spectra(267); Bioactivity(2343),17884.0,44054.0,110 - 111,,Page/Page column 10,,,,Patent; WARF (in: University of Wisconsin); UNIVERSITY OF WISCONSIN SYSTEM; WO2006/57932; (2006); A2;,https://www.reaxys.com/reaxys/secured/hopinto.do?context=C&query=CNR.CNR%3D8931759&database=RX&origin=ReaxysOutput&ln=
,CO,1098229.0,https://www.reaxys.com/reaxys/secured/hopinto.do?context=S&query=IDE.XRN%3D1098229&database=RX&origin=ReaxysOutput&ln=,(72 of 4000),67-56-1,methanol; methyl alcohol; MeOH,HOCH3,CH4O,32.0422,acyclic; Isotope or isotope containing compound,,OKKJLVBELUTLKV-UHFFFAOYSA-N,,,,Identification(28581); Physical Data(7163); Spectra(542); Bioactivity(8210),202332.0,151723.0,56 - 67,d(4)-methanol,,,,,Article; Mielcarek; Wiśniewska; Dołęga; Structural Chemistry; vol. 29; 4; (2018); p. 1189 - 1200;,https://www.reaxys.com/reaxys/secured/hopinto.do?context=C&query=CNR.CNR%3D73519597&database=RX&origin=ReaxysOutput&ln=
,NN,878137.0,https://www.reaxys.com/reaxys/secured/hopinto.do?context=S&query=IDE.XRN%3D878137&database=RX&origin=ReaxysOutput&ln=,(73 of 4000),302-01-2,hydrazine,N(NH2)H2,H4N2,32.0452,Isotope or isotope containing compound,,OAKJQQAXSVQMHS-UHFFFAOYSA-N,,,,Identification(26195); Physical Data(223); Spectra(44); Bioactivity(1420),2343.0,28121.0,1,,,,,,"Article; Dresser, A. L.; Browne, A. W.; Mason, C. W.; Journal of the American Chemical Society; vol. 55; (1933); p. 1966;; ; Article; Gmelin Handbuch der Anorganischen Chemie; vol. NH4: MVol.2; 12, page 532 - 552;; ; Article; Putochin, N.; 16; (1923); p. 52;; ; Article; Gmelin Handbuch der Anorganischen Chemie; vol. N: MVol.2; 1.8, page 314 - 319; (from Gmelin)",https://www.reaxys.com/reaxys/secured/hopinto.do?context=C&query=CNR.CNR%3D7213163&database=RX&origin=ReaxysOutput&ln=
,C[15NH2],1900226.0,https://www.reaxys.com/reaxys/secured/hopinto.do?context=S&query=IDE.XRN%3D1900226&database=RX&origin=ReaxysOutput&ln=,(74 of 4000),1449-70-3,<15N>methylamine; (15)N-Methylamin; methylamine-15N; methylamine,CH5(15)N,CH5N,32.0507,acyclic; Isotope or isotope containing compound,,BAVYZALUXZFZLV-VQEHIDDOSA-N,,,,Identification(9); Physical Data(8); Spectra(11),8.0,18.0,-93.5,,,,,,Article; Alei; Jr. et al.; Journal of Physical Chemistry; vol. 75; (1971); p. 932;,https://www.reaxys.com/reaxys/secured/hopinto.do?context=C&query=CNR.CNR%3D3984918&database=RX&origin=ReaxysOutput&ln=
,S,4921294.0,https://www.reaxys.com/reaxys/secured/hopinto.do?context=S&query=IDE.XRN%3D4921294&database=RX&origin=ReaxysOutput&ln=,(75 of 4000),7704-34-9,sulfur; sulphur,S,S,32.066,,,RWSOTUBLDIXVET-UHFFFAOYSA-N,,,,Identification(88); Physical Data(2856); Spectra(135); Bioactivity(886),16589.0,14843.0,115.8 - 116,,,,,,"Article; Huang, Kuan; Feng, Xi; Zhang, Xiao-Min; Wu, You-Ting; Hu, Xing-Bang; Green Chemistry; vol. 18; 7; (2016); p. 1859 - 1863;",https://www.reaxys.com/reaxys/secured/hopinto.do?context=C&query=CNR.CNR%3D68628751&database=RX&origin=ReaxysOutput&ln=
,[Li]C#N,3535167.0,https://www.reaxys.com/reaxys/secured/hopinto.do?context=S&query=IDE.XRN%3D3535167&database=RX&origin=ReaxysOutput&ln=,(83 of 4000),2408-36-8,lithium cyanide,NCLi,CLiN,32.9587,acyclic; Coordination compound,,KRPAPDCTWMTYHU-UHFFFAOYSA-N,,,,Identification(8); Physical Data(14); Spectra(1),313.0,129.0,160,,,,,,Article; Perret; Perrot; Helvetica Chimica Acta; vol. 15; (1932); p. 1168;,https://www.reaxys.com/reaxys/secured/hopinto.do?context=C&query=CNR.CNR%3D1172589&database=RX&origin=ReaxysOutput&ln=
,[Li+].[C-]#N,3679452.0,https://www.reaxys.com/reaxys/secured/hopinto.do?context=S&query=IDE.XRN%3D3679452&database=RX&origin=ReaxysOutput&ln=,(84 of 4000),788104-34-7; 25733-05-5,lithium cyanide,Li(1+)*CN(1-),CN*Li,32.9587,acyclic,,JORQDGTZGKHEEO-UHFFFAOYSA-N,,,,Identification(32); Physical Data(18); Spectra(8),103.0,115.0,160,,,,,,"Article; Perret, A.; Perrot, R.; Helvetica Chimica Acta; vol. 15; (1932); p. 1165 - 1171;; ; Article; Gmelin Handbuch der Anorganischen Chemie; vol. Li: SVol.; 156, page 501 - 503; (from Gmelin)",https://www.reaxys.com/reaxys/secured/hopinto.do?context=C&query=CNR.CNR%3D7544640&database=RX&origin=ReaxysOutput&ln=
,NO,3587190.0,https://www.reaxys.com/reaxys/secured/hopinto.do?context=S&query=IDE.XRN%3D3587190&database=RX&origin=ReaxysOutput&ln=,(85 of 4000),7803-49-8,hydroxylamine; hydroxyalmine,H3NO,H3NO,33.0299,,,AVXURJPOCDRRFD-UHFFFAOYSA-N,,,,Identification(281878); Physical Data(67); Spectra(24); Bioactivity(14174),1975.0,282639.0,141 - 142,,,,,,"Article; Zhou, Yue; Tu, Xingzhao; Li, Zhijie; Zhou, Lihong; Zeng, Qingle; Organic Preparations and Procedures International; vol. 48; 5; (2016); p. 413 - 420;",https://www.reaxys.com/reaxys/secured/hopinto.do?context=C&query=CNR.CNR%3D69576382&database=RX&origin=ReaxysOutput&ln=
,[2H]N([2H])C,1731212.0,https://www.reaxys.com/reaxys/secured/hopinto.do?context=S&query=IDE.XRN%3D1731212&database=RX&origin=ReaxysOutput&ln=,(86 of 4000),2614-35-9,"N-deuteriomethylamine; N,N-dideuterio-methylamine; methylamine-d2; N,N-Dideutero-methylamin; N-Dideutero-methylamin; Methylamin-N-D(2); N-Dideuterio-methylamin; N-Deutero-methylamin",CH3ND2,CH5N,33.0415,acyclic; Isotope or isotope containing compound,,BAVYZALUXZFZLV-ZSJDYOACSA-N,,,,Identification(19); Physical Data(27); Spectra(20),17.0,67.0,-89.2,,,,,,Article; Emeleus; Briscoe; Journal of the Chemical Society; (1937); p. 127;,https://www.reaxys.com/reaxys/secured/hopinto.do?context=C&query=CNR.CNR%3D1230692&database=RX&origin=ReaxysOutput&ln=
,[2H]C([2H])([2H])C,1730791.0,https://www.reaxys.com/reaxys/secured/hopinto.do?context=S&query=IDE.XRN%3D1730791&database=RX&origin=ReaxysOutput&ln=,(87 of 4000),2031-95-0,"1,1,1-trideuterio-ethane; ethane-d3",CH3C(2)H3,C2H6,33.0458,acyclic; Isotope or isotope containing compound,,OTMSDBZUPAUEDD-FIBGUPNXSA-N,,,,Identification(13); Physical Data(18); Spectra(38),41.0,106.0,-184.1,,,,,,"Article; Barnett; Muller; Journal of Chemical and Engineering Data; vol. 15; (1970); p. 154,155,156;",https://www.reaxys.com/reaxys/secured/hopinto.do?context=C&query=CNR.CNR%3D3988584&database=RX&origin=ReaxysOutput&ln=
,[H]OO[H],3587191.0,https://www.reaxys.com/reaxys/secured/hopinto.do?context=S&query=IDE.XRN%3D3587191&database=RX&origin=ReaxysOutput&ln=,(89 of 4000),7722-84-1,dihydrogen peroxide; hydrogen peroxide,O2H2,H2O2,34.0147,,,MHAJPDPJQMAIIY-UHFFFAOYSA-N,,,,Identification(5846); Physical Data(909); Spectra(215); Bioactivity(3178),10024.0,20599.0,25,,,1.5 GPa,,,"Article; Cynn, Hyunchae; Yoo, Choong-Shik; Sheffield, Stephen A.; Journal of Chemical Physics; vol. 110; 14; (1999); p. 6836 - 6843; (from Gmelin)",https://www.reaxys.com/reaxys/secured/hopinto.do?context=C&query=CNR.CNR%3D6186814&database=RX&origin=ReaxysOutput&ln=
,CF,1730725.0,https://www.reaxys.com/reaxys/secured/hopinto.do?context=S&query=IDE.XRN%3D1730725&database=RX&origin=ReaxysOutput&ln=,(90 of 4000),593-53-3,Methyl fluoride,CFH3,CH3F,34.0332,acyclic,,NBVXSUQYWXRMNV-UHFFFAOYSA-N,,,,Identification(532); Physical Data(342); Spectra(157); Bioactivity(72),347.0,1414.0,-141.8,,,,,,Article; Grosse; Wackher; Linn; Journal of Physical Chemistry; vol. 44; (1940); p. 293;,https://www.reaxys.com/reaxys/secured/hopinto.do?context=C&query=CNR.CNR%3D1231103&database=RX&origin=ReaxysOutput&ln=
,[2H]C([2H])C([2H])[2H],1730995.0,https://www.reaxys.com/reaxys/secured/hopinto.do?context=S&query=IDE.XRN%3D1730995&database=RX&origin=ReaxysOutput&ln=,(91 of 4000),3681-29-6,"1,1,2,2-tetradeuterio-ethane; 1,1,2,2-Tetradeuterio-aethan",C2H2D4,C2H6,34.0379,acyclic,,OTMSDBZUPAUEDD-LNLMKGTHSA-N,,,,Identification(5); Physical Data(9); Spectra(18),5.0,24.0,-183.27,,,,,,"Article; Barnett; Muller; Journal of Chemical and Engineering Data; vol. 15; (1970); p. 154,155,156;",https://www.reaxys.com/reaxys/secured/hopinto.do?context=C&query=CNR.CNR%3D3988584&database=RX&origin=ReaxysOutput&ln=
,[H]O[H].[H]C([H])([H])[H],3929436.0,https://www.reaxys.com/reaxys/secured/hopinto.do?context=S&query=IDE.XRN%3D3929436&database=RX&origin=ReaxysOutput&ln=,(92 of 4000),154320-69-1,methane hydrate; methane; monohydrate,CH4*H2O,CH4*H2O,34.058,acyclic,,VUZPPFZMUPKLLV-UHFFFAOYSA-N,,,,Identification(4963); Physical Data(1); Spectra(2),2.0,4855.0,2 - 3,,,,,,Patent; WOODSIDE PETROLEUM LIMITED; US6855852; (2005); B1;,https://www.reaxys.com/reaxys/secured/hopinto.do?context=C&query=CNR.CNR%3D361141&database=RX&origin=ReaxysOutput&ln=
,[H]S[H],3535004.0,https://www.reaxys.com/reaxys/secured/hopinto.do?context=S&query=IDE.XRN%3D3535004&database=RX&origin=ReaxysOutput&ln=,(93 of 4000),7783-06-4,hydrogen sulfide; Hydrogen sulphide,HSH,H2S,34.0819,Isotope or isotope containing compound,,RWSOTUBLDIXVET-UHFFFAOYSA-N,,,,Identification(86160); Physical Data(2014); Spectra(185); Bioactivity(4487),7917.0,87422.0,-86,,,,,,Patent; ENLIGHTEN INNOVATIONS INC; US2005/161340; (2005); A1;,https://www.reaxys.com/reaxys/secured/hopinto.do?context=C&query=CNR.CNR%3D8821905&database=RX&origin=ReaxysOutput&ln=
,NF,6473688.0,https://www.reaxys.com/reaxys/secured/hopinto.do?context=S&query=IDE.XRN%3D6473688&database=RX&origin=ReaxysOutput&ln=,(94 of 4000),13967-06-1,N-monofluoroamine; amine fluoride; nitrogen dihydrogen fluoride; monofluoramine; monofluoroamine; fluoro amine; ammonia fluoride; aminofluoride; aminofluoran; fluoramine,NFH2,FH2N,35.021,,,MDQRDWAGHRLBPA-UHFFFAOYSA-N,,,,Identification(248); Physical Data(14); Spectra(7); Bioactivity(18),21.0,324.0,-103,,,with decomposition,,,"Article; Minkwitz, Rolf; Nass, Ruediger; Zeitschrift fur Naturforschung, B: Chemical Sciences; vol. 43; 11; (1988); p. 1478 - 1480; (from Gmelin)",https://www.reaxys.com/reaxys/secured/hopinto.do?context=C&query=CNR.CNR%3D5792869&database=RX&origin=ReaxysOutput&ln=
,[2H]C([2H])C([2H])([2H])[2H],1731253.0,https://www.reaxys.com/reaxys/secured/hopinto.do?context=S&query=IDE.XRN%3D1731253&database=RX&origin=ReaxysOutput&ln=,(95 of 4000),3681-30-9,pentadeuterioethane; ethane-d5; Pentadeuterio-aethan,C2H(2)H5,C2H6,35.0299,acyclic; Isotope or isotope containing compound,,OTMSDBZUPAUEDD-KPAILUHGSA-N,,,,Identification(6); Physical Data(11); Spectra(18),14.0,31.0,-183.35,,,,,,"Article; Barnett; Muller; Journal of Chemical and Engineering Data; vol. 15; (1970); p. 154,155,156;",https://www.reaxys.com/reaxys/secured/hopinto.do?context=C&query=CNR.CNR%3D3988584&database=RX&origin=ReaxysOutput&ln=
,[2H]OO[2H],5489626.0,https://www.reaxys.com/reaxys/secured/hopinto.do?context=S&query=IDE.XRN%3D5489626&database=RX&origin=ReaxysOutput&ln=,(98 of 4000),6909-54-2,hydrogen peroxide,((2)H)2O2,H2O2,35.9988,Isotope or isotope containing compound,,MHAJPDPJQMAIIY-ZSJDYOACSA-N,,,,Identification(20); Physical Data(66); Spectra(14),62.0,123.0,1.5,,,,,,"Article; Giguere, P. A.; Secco, E. A.; Canadian Journal of Chemistry; vol. 32; (1954); p. 550 - 556;; ; Article; Gmelin Handbuch der Anorganischen Chemie; vol. O: MVol.7; 144, page 2520 - 2522; (from Gmelin)",https://www.reaxys.com/reaxys/secured/hopinto.do?context=C&query=CNR.CNR%3D7617963&database=RX&origin=ReaxysOutput&ln=
,[Li]CC,3587196.0,https://www.reaxys.com/reaxys/secured/hopinto.do?context=S&query=IDE.XRN%3D3587196&database=RX&origin=ReaxysOutput&ln=,(99 of 4000),811-49-4,ethyllithium,CH3CH2Li,C2H5Li,36.0027,acyclic; Isotope or isotope containing compound,,BLHLJVCOVBYQQS-UHFFFAOYSA-N,,,,Identification(109); Physical Data(53); Spectra(31),1428.0,1126.0,95,,,,,,"Article; Quirk; Kester; Journal of Organometallic Chemistry; vol. 127; (1977); p. 111,117;",https://www.reaxys.com/reaxys/secured/hopinto.do?context=C&query=CNR.CNR%3D4473592&database=RX&origin=ReaxysOutput&ln=
,[2H]S[2H],7801834.0,https://www.reaxys.com/reaxys/secured/hopinto.do?context=S&query=IDE.XRN%3D7801834&database=RX&origin=ReaxysOutput&ln=,(101 of 4000),13536-94-2,deuterium sulfide,(2)H2S,H2S,36.066,Isotope or isotope containing compound,,RWSOTUBLDIXVET-ZSJDYOACSA-N,,,,Identification(20); Physical Data(156); Spectra(52),128.0,360.0,25,,,3.75E+06 Torr,,,"Article; Shimizu, H.; Murashima, H.; Sasaki, S.; Journal of Chemical Physics; vol. 97; 10; (1992); p. 7137 - 7139; (from Gmelin)",https://www.reaxys.com/reaxys/secured/hopinto.do?context=C&query=CNR.CNR%3D5704961&database=RX&origin=ReaxysOutput&ln=
,[NH4+].[F-],13192588.0,https://www.reaxys.com/reaxys/secured/hopinto.do?context=S&query=IDE.XRN%3D13192588&database=RX&origin=ReaxysOutput&ln=,(106 of 4000),,ammonium fluoride,F(1-)*H4N(1+),F*H4N,37.0369,,,LDDQLRUQCUTJBB-UHFFFAOYSA-N,,,,Identification(7); Physical Data(124); Spectra(11); Bioactivity(62),1519.0,1219.0,138,,,with decomposition,,,Article; D'yachenko; Kraidenko; Russian Journal of Applied Chemistry; vol. 81; 6; (2008); p. 952 - 955; (from Gmelin),https://www.reaxys.com/reaxys/secured/hopinto.do?context=C&query=CNR.CNR%3D8660176&database=RX&origin=ReaxysOutput&ln=
,[F-].[H][O+]([H])[H],16473479.0,https://www.reaxys.com/reaxys/secured/hopinto.do?context=S&query=IDE.XRN%3D16473479&database=RX&origin=ReaxysOutput&ln=,(112 of 4000),215303-12-1,hydronium fluoride,H3O(1+)*F(1-) = H2OHF,F*H3O,38.0216,Coordination compound,,SGWCNDDOFLBOQV-UHFFFAOYSA-N,,,,Identification(5); Physical Data(4); Spectra(1),1.0,9.0,-35.2,,,,,,"Article; Giguere, Paul A.; Turrell, Sylvia; Journal of the American Chemical Society; vol. 102; 17; (1980); p. 5473 - 5477; (from Gmelin)",https://www.reaxys.com/reaxys/secured/hopinto.do?context=C&query=CNR.CNR%3D5626078&database=RX&origin=ReaxysOutput&ln=
,F[H].[H]O[H],16846287.0,https://www.reaxys.com/reaxys/secured/hopinto.do?context=S&query=IDE.XRN%3D16846287&database=RX&origin=ReaxysOutput&ln=,(113 of 4000),215303-12-1,hydroflouric acid monohydrate; water-hydrogen fluoride adduct; hydrogen fluoride * water; H2O*hydrogen fluoride,HF*H2O=HF(H2O),FH*H2O,38.0216,Coordination compound,,SGWCNDDOFLBOQV-UHFFFAOYSA-N,,,,Identification(67); Physical Data(5); Spectra(5),4.0,101.0,-34.5,,,,,,"Article; Pawlenko, S.; Zeitschrift fur Anorganische und Allgemeine Chemie; Zeitschrift fuer Anorganische und Allgemeine Chemie; vol. 328; (1964); p. 133 - 143;; ; Article; Gmelin Handbuch der Anorganischen Chemie; vol. F: SVol.3; 2.1.12.1, page 238 - 241; (from Gmelin)",https://www.reaxys.com/reaxys/secured/hopinto.do?context=C&query=CNR.CNR%3D7750744&database=RX&origin=ReaxysOutput&ln=
,[H].[H].N.[Na],14465472.0,https://www.reaxys.com/reaxys/secured/hopinto.do?context=S&query=IDE.XRN%3D14465472&database=RX&origin=ReaxysOutput&ln=,(116 of 4000),,sodium amide,H2NNa,H2NNa,39.0123,,,QHTYUOQVXUARKX-UHFFFAOYSA-N,,,,Identification(381); Physical Data(35); Bioactivity(34),175.0,651.0,207,,,,,,"Article; Jacobs, H.; Niewa, R.; European Journal of Solid State and Inorganic Chemistry; vol. 31; (1994); p. 105 - 114; (from Gmelin)",https://www.reaxys.com/reaxys/secured/hopinto.do?context=C&query=CNR.CNR%3D7835946&database=RX&origin=ReaxysOutput&ln=
,[H].O.[Na],8128150.0,https://www.reaxys.com/reaxys/secured/hopinto.do?context=S&query=IDE.XRN%3D8128150&database=RX&origin=ReaxysOutput&ln=,(119 of 4000),1310-73-2,sodium hydroxide; NaOH,Na(1+)*OH(1-) = NaOH,HNaO,39.9971,,,PAJKIGAQXRHCMT-UHFFFAOYSA-N,,,,Identification(4955); Physical Data(1354); Spectra(91); Bioactivity(961),14235.0,18593.0,318,,,,,,"Article; Chen, Chih Wei; Lee, Tu; Organic Process Research and Development; vol. 21; 9; (2017); p. 1326 - 1339;",https://www.reaxys.com/reaxys/secured/hopinto.do?context=C&query=CNR.CNR%3D72083816&database=RX&origin=ReaxysOutput&ln=
,[OH-].[Na+],11342940.0,https://www.reaxys.com/reaxys/secured/hopinto.do?context=S&query=IDE.XRN%3D11342940&database=RX&origin=ReaxysOutput&ln=,(120 of 4000),1310-73-2,sodium hydroxide,Na(1+)*OH(1-),HO*Na,39.9971,,,VNWKTOKETHGBQD-UHFFFAOYSA-N,,,,Identification(49); Physical Data(3); Spectra(5); Bioactivity(46),489.0,821.0,132 - 134,methanol; diethyl ether,,,,,Patent; AVECIA HOLDINGS LIMITED; PIRAMAL ENTERPRISES LIMITED; WO2005/56543; (2005); A2;,https://www.reaxys.com/reaxys/secured/hopinto.do?context=C&query=CNR.CNR%3D8821560&database=RX&origin=ReaxysOutput&ln=
,CC#C,878138.0,https://www.reaxys.com/reaxys/secured/hopinto.do?context=S&query=IDE.XRN%3D878138&database=RX&origin=ReaxysOutput&ln=,(121 of 4000),74-99-7,prop-1-yne; propyne,HCC(CH3),C3H4,40.0648,acyclic,,MWWATHDPGQKSAR-UHFFFAOYSA-N,,,,Identification(2292); Physical Data(323); Spectra(161); Bioactivity(245),2798.0,4727.0,-102.7,,,,,,"Article; Rossini; Selected values of physical and thermodynamic properties of hydrocarbons and related compounds; (1953); p. 66;; ; Article; Morehouse; Maass; Canadian Journal of Research; vol. 5; (1931); p. 308,311; Chemisches Zentralblatt; vol. 102; II; (1931); p. 3197;; ; Article; Conn; Kistiakowsky; Smith; Journal of the American Chemical Society; vol. 61; (1939); p. 1868,1869;",https://www.reaxys.com/reaxys/secured/hopinto.do?context=C&query=CNR.CNR%3D1347844&database=RX&origin=ReaxysOutput&ln=
,C=C=C,1730774.0,https://www.reaxys.com/reaxys/secured/hopinto.do?context=S&query=IDE.XRN%3D1730774&database=RX&origin=ReaxysOutput&ln=,(122 of 4000),463-49-0,"1,2-propanediene; 1,2-propadiene; propadiene; Allene",H2CCCH2,C3H4,40.0648,acyclic,,IYABWNGZIDDRAK-UHFFFAOYSA-N,,,,Identification(436); Physical Data(160); Spectra(108); Bioactivity(88),2343.0,1758.0,-136,,,,,,Article; Rossini; Selected values of physical and thermodynamic properties of hydrocarbons and related compounds; (1953); p. 62;; ; Article; Oka; Sato; Bulletin of the Chemical Society of Japan; vol. 42; (1969); p. 582;,https://www.reaxys.com/reaxys/secured/hopinto.do?context=C&query=CNR.CNR%3D1347902&database=RX&origin=ReaxysOutput&ln=