Structure: Image,SMILES,Substance Identification: Reaxys Registry Number,Links to Reaxys,Data Count,CAS Registry Number,Chemical Name,Linear Structure Formula,Molecular Formula,Molecular Weight,Type of Substance,Type and Modification,InChI Key,Composition: Comp. Name,Composition: Comp. Conc.,Composition: Comp. Attrib.,Field Availability,Number of Reactions,Number of References,Melting Point: Melting Point [C],Solvent (Melting Point),Location,Comment (Melting Point),Crystallizes With,Amount (Melting Point) [mol],References,Links to Reaxys.1
,O=C1CCCC1,605573.0,https://www.reaxys.com/reaxys/secured/hopinto.do?context=S&query=IDE.XRN%3D605573&database=RX&origin=ReaxysOutput&ln=,(1238 of 4000),120-92-3,cyclopentanone,(CH2)4C(O),C5H8O,84.1179,isocyclic,,BGTOWKSIORTVQH-UHFFFAOYSA-N,,,,Identification(3404); Physical Data(534); Spectra(167); Bioactivity(680),19785.0,13237.0,-51.91,,,,,,"Article; Guanquan, Che; Ott, J. Bevan; Goates, J. Rex; Journal of Chemical Thermodynamics; vol. 18; 4; (1986); p. 323 - 330;",https://www.reaxys.com/reaxys/secured/hopinto.do?context=C&query=CNR.CNR%3D5865751&database=RX&origin=ReaxysOutput&ln=
,CC(C)(O)C#C,635746.0,https://www.reaxys.com/reaxys/secured/hopinto.do?context=S&query=IDE.XRN%3D635746&database=RX&origin=ReaxysOutput&ln=,(1239 of 4000),115-19-5,"2-methyl-but-3-yn-2-ol; 2-methyl-3-butyn-2-ol; 1,1-dimethylpropynol",HC2C(OH)(CH3)2,C5H8O,84.1179,acyclic,,CEBKHWWANWSNTI-UHFFFAOYSA-N,,,,Identification(798); Physical Data(163); Spectra(71); Bioactivity(232),9234.0,4595.0,102 - 104,,,,,,"Article; Horner,L.; Binder,V.; Justus Liebigs Annalen der Chemie; vol. 757; (1972); p. 33 - 68;",https://www.reaxys.com/reaxys/secured/hopinto.do?context=C&query=CNR.CNR%3D79552&database=RX&origin=ReaxysOutput&ln=
,CC(=C)C(C)=O,1071241.0,https://www.reaxys.com/reaxys/secured/hopinto.do?context=S&query=IDE.XRN%3D1071241&database=RX&origin=ReaxysOutput&ln=,(1240 of 4000),814-78-8,3-Methyl-3-buten-2-one,H2CC(CH3)C(O)CH3,C5H8O,84.1179,acyclic,,ZGHFDIIVVIFNPS-UHFFFAOYSA-N,,,,Identification(217); Physical Data(102); Spectra(41); Bioactivity(46),980.0,701.0,-53.6,,,,,,Article; Dreisbach; Martin; Industrial and Engineering Chemistry; vol. 41; (1949); p. 2876;,https://www.reaxys.com/reaxys/secured/hopinto.do?context=C&query=CNR.CNR%3D1142854&database=RX&origin=ReaxysOutput&ln=
,CC=CC(C)=O,1633505.0,https://www.reaxys.com/reaxys/secured/hopinto.do?context=S&query=IDE.XRN%3D1633505&database=RX&origin=ReaxysOutput&ln=,(1241 of 4000),625-33-2,3-Penten-2-on,CH3COCHCHCH3,C5H8O,84.1179,acyclic,,LABTWGUMFABVFG-UHFFFAOYSA-N,,,,Identification(145); Physical Data(83); Spectra(43); Bioactivity(36),912.0,657.0,118 - 120,,,,,,Article; Langlais et al.; Comptes Rendus Hebdomadaires des Seances de l'Academie des Sciences; vol. 261; (1965); p. 2920;,https://www.reaxys.com/reaxys/secured/hopinto.do?context=C&query=CNR.CNR%3D2937664&database=RX&origin=ReaxysOutput&ln=
,CC(=O)C1CC1,1633817.0,https://www.reaxys.com/reaxys/secured/hopinto.do?context=S&query=IDE.XRN%3D1633817&database=RX&origin=ReaxysOutput&ln=,(1242 of 4000),765-43-5,1-cyclopropyl-ethanone; Cyclopropyl methyl ketone,CH3C(O)C3H5,C5H8O,84.1179,isocyclic,,HVCFCNAITDHQFX-UHFFFAOYSA-N,,,,Identification(277); Physical Data(146); Spectra(65); Bioactivity(78),3155.0,1533.0,110 - 112,,,,,,"Article; Biernacki,W.; Sobotka,W.; Roczniki Chemii; vol. 51; (1977); p. 469 - 473;",https://www.reaxys.com/reaxys/secured/hopinto.do?context=C&query=CNR.CNR%3D35411&database=RX&origin=ReaxysOutput&ln=
,CC\C=C\C=O,1719742.0,https://www.reaxys.com/reaxys/secured/hopinto.do?context=S&query=IDE.XRN%3D1719742&database=RX&origin=ReaxysOutput&ln=,(1243 of 4000),1576-87-0,trans-2-pentenal; (2E)-pentenal,CH3CH2CHCHCHO,C5H8O,84.1179,acyclic,,DTCCTIQRPGSLPT-ONEGZZNKSA-N,,,,Identification(1056); Physical Data(33); Spectra(28); Bioactivity(138),1091.0,1366.0,90 - 92,,,,,,"Article; Moller et al.; Acta chemica Scandinavica. Series B: Organic chemistry and biochemistry; vol. 31; (1977); p. 671,672,678;",https://www.reaxys.com/reaxys/secured/hopinto.do?context=C&query=CNR.CNR%3D3608157&database=RX&origin=ReaxysOutput&ln=
,CCC#CCO,1734007.0,https://www.reaxys.com/reaxys/secured/hopinto.do?context=S&query=IDE.XRN%3D1734007&database=RX&origin=ReaxysOutput&ln=,(1244 of 4000),6261-22-9,pent-2-yn-1-ol; 2-pentyn-1-ol; 3-pentyn-1-ol; 2‐pentyn‐1‐ol; 2-pentynol; ethyl ethynylcarbinol,C2H5CCCH2OH,C5H8O,84.1179,acyclic,,WLPYSOCRPHTIDZ-UHFFFAOYSA-N,,,,Identification(74); Physical Data(58); Spectra(28); Bioactivity(15),631.0,273.0,-49.9 - -49.7,,,,,,Article; Smets; Memoires - Academie royale de Belgique; 8grad21 Nr.1&lt;1947&gt;S.42; Chem.Abstr.; (1950); p. 8315;,https://www.reaxys.com/reaxys/secured/hopinto.do?context=C&query=CNR.CNR%3D1364970&database=RX&origin=ReaxysOutput&ln=
,CCC(=O)C=C,1735857.0,https://www.reaxys.com/reaxys/secured/hopinto.do?context=S&query=IDE.XRN%3D1735857&database=RX&origin=ReaxysOutput&ln=,(1245 of 4000),1629-58-9,4-penten-3-one; ethyl vinyl ketone,C2H5C(O)CHCH2,C5H8O,84.1179,acyclic,,JLIDVCMBCGBIEY-UHFFFAOYSA-N,,,,Identification(1094); Physical Data(40); Spectra(43); Bioactivity(133),4542.0,2427.0,154 - 158,,,,,,Patent; PFIZER INC; US4810716; (1989); A;; ; Patent; PFIZER INC; US4959503; (1990); A;,https://www.reaxys.com/reaxys/secured/hopinto.do?context=C&query=CNR.CNR%3D81681&database=RX&origin=ReaxysOutput&ln=
,OC12CC(C1)C2,2514337.0,https://www.reaxys.com/reaxys/secured/hopinto.do?context=S&query=IDE.XRN%3D2514337&database=RX&origin=ReaxysOutput&ln=,(1246 of 4000),22287-25-8,bicyclo[1.1.1]pentan-1-ol; Bicyclo<1.1.1>pentan-1-ol,C5H8O,C5H8O,84.1179,isocyclic,,VXUWETRSZDNLTC-UHFFFAOYSA-N,,,,Identification(8); Physical Data(1); Spectra(1),3.0,4.0,61 - 62,,,,,,"Article; Wiberg,K.B.; Williams,V.Z.; Journal of Organic Chemistry; vol. 35; (1970); p. 369 - 373;",https://www.reaxys.com/reaxys/secured/hopinto.do?context=C&query=CNR.CNR%3D184275&database=RX&origin=ReaxysOutput&ln=
,C1CN1N1CC1,102756.0,https://www.reaxys.com/reaxys/secured/hopinto.do?context=S&query=IDE.XRN%3D102756&database=RX&origin=ReaxysOutput&ln=,(1247 of 4000),4388-03-8,"1,1'-Biaziridyl",C4H8N2,C4H8N2,84.1209,heterocyclic,,GLMZATQIVHLHHX-UHFFFAOYSA-N,,,,Identification(11); Physical Data(10); Spectra(2),5.0,8.0,-11,,,Beim Erwaermen in Gegenwart von Sauerstoff erfolgt Explosion.,,,Article; Graefe; Meyer; Journal of the American Chemical Society; vol. 80; (1958); p. 3939;,https://www.reaxys.com/reaxys/secured/hopinto.do?context=C&query=CNR.CNR%3D974499&database=RX&origin=ReaxysOutput&ln=
,CC1=NCCN1,104225.0,https://www.reaxys.com/reaxys/secured/hopinto.do?context=S&query=IDE.XRN%3D104225&database=RX&origin=ReaxysOutput&ln=,(1248 of 4000),534-26-9,"lysidine; 2-methyl-2-imidazoline; 2-methylimidazoline; 2-methyl-4,5-dihydro-1H imidazole",CH3C3H5N2,C4H8N2,84.1209,heterocyclic,,VWSLLSXLURJCDF-UHFFFAOYSA-N,,,,Identification(69); Physical Data(57); Spectra(24); Bioactivity(11),197.0,203.0,86 - 88,,,,,,Article; Popov; Mokhov; Kalitina; Russian Journal of General Chemistry; vol. 86; 2; (2016); p. 281 - 285; Zh. Obshch. Khim.; vol. 86; 2; (2016); p. 253 - 257;,https://www.reaxys.com/reaxys/secured/hopinto.do?context=C&query=CNR.CNR%3D68662514&database=RX&origin=ReaxysOutput&ln=
,NC1=NCCC1,471224.0,https://www.reaxys.com/reaxys/secured/hopinto.do?context=S&query=IDE.XRN%3D471224&database=RX&origin=ReaxysOutput&ln=,(1249 of 4000),872-34-4,2-Amino-Δ1-pyrrolin; 2-amino-1-pyrroline; 2-aminopyrroline; 2-Amino-1-pyrrolin,C4H8N2,C4H8N2,84.1209,heterocyclic,,NJBMZYSKLWQXLJ-UHFFFAOYSA-N,,,,Identification(18); Physical Data(6); Spectra(7),19.0,21.0,77 - 79,,,,,,"Article; Sieveking; Luettke; Angewandte Chemie; vol. 81; (1969); p. 432;; ; Article; Sieveking; Luettke; Justus Liebigs Annalen der Chemie; (1977); p. 189,191,194,195,202;",https://www.reaxys.com/reaxys/secured/hopinto.do?context=C&query=CNR.CNR%3D2592970&database=RX&origin=ReaxysOutput&ln=
,C1N2CCCN12,605373.0,https://www.reaxys.com/reaxys/secured/hopinto.do?context=S&query=IDE.XRN%3D605373&database=RX&origin=ReaxysOutput&ln=,(1250 of 4000),13090-31-8,"1,5-diazabicyclo[3.1.0]hexane",C4H8N2,C4H8N2,84.1209,heterocyclic,,RZIHIJJOVJRDTA-UHFFFAOYSA-N,,,,Identification(15); Physical Data(12); Spectra(7),13.0,21.0,-9.5,,,,,,Article; Terpigorev; Kuznetsova; Uvarova; Bazanov; Russian Journal of Applied Chemistry; vol. 72; 12; (1999); p. 2103 - 2107;,https://www.reaxys.com/reaxys/secured/hopinto.do?context=C&query=CNR.CNR%3D6251134&database=RX&origin=ReaxysOutput&ln=
,CCC1(C)N=N1,605624.0,https://www.reaxys.com/reaxys/secured/hopinto.do?context=S&query=IDE.XRN%3D605624&database=RX&origin=ReaxysOutput&ln=,(1251 of 4000),18501-91-2,"ethylmethyldiazirine; 3-Methyl-3-ethyldiazacyclopropan; Methyl-ethyl-diazirin; C-Methyl-C-ethyldiazacyclopropen; 3-Methyl-3-ethyl-1,2-diaza-cyclopropen-(1); 3-ethyl-3-methyl-3H-diazirine; C-Ethyl-C-methyl-diazacyclopropen",C4H8N2,C4H8N2,84.1209,heterocyclic,,PTRSMIYWOGWCPA-UHFFFAOYSA-N,,,,Identification(6); Physical Data(9); Spectra(4),2.0,7.0,186,,,,,,Patent; INTERNATIONAL CHEMICALS INVESTORS SE; DE1123330; (1962); B; Chem.Abstr.; vol. 57; 7275g; (1962); Chem.Abstr.; vol. 57; 7275g; (1962);,https://www.reaxys.com/reaxys/secured/hopinto.do?context=C&query=CNR.CNR%3D2673448&database=RX&origin=ReaxysOutput&ln=
,N=C1CCCN1,1616538.0,https://www.reaxys.com/reaxys/secured/hopinto.do?context=S&query=IDE.XRN%3D1616538&database=RX&origin=ReaxysOutput&ln=,(1252 of 4000),872-34-4,2-imino-pyrrolidine; 2-Imino-pyrrolidin,C4H8N2,C4H8N2,84.1209,heterocyclic,,NJBMZYSKLWQXLJ-UHFFFAOYSA-N,,,,Identification(29); Physical Data(3); Bioactivity(5),15.0,30.0,74 - 80,,,,,,"Article; Etienne; Correia; Bulletin de la Societe Chimique de France; (1969); p. 3704,3708,3709;",https://www.reaxys.com/reaxys/secured/hopinto.do?context=C&query=CNR.CNR%3D2678645&database=RX&origin=ReaxysOutput&ln=
,NCC#CCN,1735982.0,https://www.reaxys.com/reaxys/secured/hopinto.do?context=S&query=IDE.XRN%3D1735982&database=RX&origin=ReaxysOutput&ln=,(1253 of 4000),53878-96-9,"but-2-yne-1,4-diamine; 1,4-diamino-2-butyne; 1,4-diamino-but-2-yne",NH2CH2CCCH2NH2,C4H8N2,84.1209,acyclic,,CSZGEDPWASKNHR-UHFFFAOYSA-N,,,,Identification(19); Physical Data(5); Bioactivity(4),31.0,34.0,42 - 46,,,,,,"Article; Johnson; Journal of the Chemical Society; (1946); p. 1013;; ; Article; Jeon, Heung-Bae; Lee, Younghee; Qiao, Chunhua; Huang, He; Sayre, Lawrence M.; Bioorganic and Medicinal Chemistry; vol. 11; 21; (2003); p. 4631 - 4641;",https://www.reaxys.com/reaxys/secured/hopinto.do?context=C&query=CNR.CNR%3D1167811&database=RX&origin=ReaxysOutput&ln=
,C1NCC=CN1,13319993.0,https://www.reaxys.com/reaxys/secured/hopinto.do?context=S&query=IDE.XRN%3D13319993&database=RX&origin=ReaxysOutput&ln=,(1254 of 4000),64890-89-7,"1,2,3,4-tetrahydropyrimidine; 1,2,3,6-tetrahydropyrimidine; tetrahydropyrimidine",C4H8N2,C4H8N2,84.1209,,,OTPDWCMLUKMQNO-UHFFFAOYSA-N,,,,Identification(34); Physical Data(1),3.0,35.0,30 - 40,,,,,,Patent; FERRO CORP; US4404302; (1983); A;,https://www.reaxys.com/reaxys/secured/hopinto.do?context=C&query=CNR.CNR%3D7091542&database=RX&origin=ReaxysOutput&ln=
,S1C=CC=C1,103222.0,https://www.reaxys.com/reaxys/secured/hopinto.do?context=S&query=IDE.XRN%3D103222&database=RX&origin=ReaxysOutput&ln=,(1255 of 4000),188290-36-0,thiophene,C4SH4,C4H4S,84.1418,heterocyclic,,YTPLMLYBLZKORZ-UHFFFAOYSA-N,,,,Identification(3029); Physical Data(697); Spectra(195); Bioactivity(361),3947.0,6915.0,-38,,supporting information,,,,Article; Peláez; Argüello; Tetrahedron Letters; vol. 51; 40; (2010); p. 5242 - 5245;,https://www.reaxys.com/reaxys/secured/hopinto.do?context=C&query=CNR.CNR%3D8928398&database=RX&origin=ReaxysOutput&ln=
,CC(C)C(C)=C,505982.0,https://www.reaxys.com/reaxys/secured/hopinto.do?context=S&query=IDE.XRN%3D505982&database=RX&origin=ReaxysOutput&ln=,(1256 of 4000),563-78-0,"2,3-Dimethyl-1-butene",CH3C(CH2)(CH(CH3)2),C6H12,84.1613,acyclic; Isotope or isotope containing compound,,OWWIWYDDISJUMY-UHFFFAOYSA-N,,,,Identification(197); Physical Data(99); Spectra(30),440.0,645.0,-157.27,,,,,,Report; Rossini; Selected values of chemical thermodynamic properties;,https://www.reaxys.com/reaxys/secured/hopinto.do?context=C&query=CNR.CNR%3D1346274&database=RX&origin=ReaxysOutput&ln=
,CCCC=CC,969179.0,https://www.reaxys.com/reaxys/secured/hopinto.do?context=S&query=IDE.XRN%3D969179&database=RX&origin=ReaxysOutput&ln=,(1257 of 4000),592-43-8,"2-hexene; hex-2-ene; cis,trans-2-hexene",CH3CHCHCH2CH2CH3,C6H12,84.1613,acyclic,,RYPKRALMXUUNKS-UHFFFAOYSA-N,,,,Identification(29); Physical Data(61); Spectra(19),262.0,409.0,-149,,,,,,Article; Timmermans; Bulletin des Societes Chimiques Belges; vol. 36; (1927); p. 503; Chemisches Zentralblatt; vol. 99; I; (1928); p. 26;,https://www.reaxys.com/reaxys/secured/hopinto.do?context=C&query=CNR.CNR%3D1314298&database=RX&origin=ReaxysOutput&ln=
,CCCCC=C,1209240.0,https://www.reaxys.com/reaxys/secured/hopinto.do?context=S&query=IDE.XRN%3D1209240&database=RX&origin=ReaxysOutput&ln=,(1258 of 4000),592-41-6,1-hexene; Hex-1-en,H2CCH(CH2)3CH3,C6H12,84.1613,acyclic,,LIKMAJRDDDTEIG-UHFFFAOYSA-N,,,,Identification(5999); Physical Data(708); Spectra(128); Bioactivity(591),6765.0,11725.0,-139.8,,,,,,Report; Rossini; Selected values of chemical thermodynamic properties;; ; Article; Streiff et al.; Journal of Research of the National Bureau of Standards (United States); vol. 41; (1948); p. 345; Chem.Abstr.; (1949); p. 2924;,https://www.reaxys.com/reaxys/secured/hopinto.do?context=C&query=CNR.CNR%3D1346217&database=RX&origin=ReaxysOutput&ln=
,CC(C)=C(C)C,1340496.0,https://www.reaxys.com/reaxys/secured/hopinto.do?context=S&query=IDE.XRN%3D1340496&database=RX&origin=ReaxysOutput&ln=,(1259 of 4000),563-79-1,"2,3-Dimethyl-2-butene; Tetramethylethylene; Tetramethylethene",((CH3)2C)2,C6H12,84.1613,acyclic,,WGLLSSPDPJPLOR-UHFFFAOYSA-N,,,,Identification(749); Physical Data(264); Spectra(108); Bioactivity(165),3372.0,3227.0,-74.54,,,,,,Article; Boord et al.; Industrial and Engineering Chemistry; vol. 41; (1949); p. 615;,https://www.reaxys.com/reaxys/secured/hopinto.do?context=C&query=CNR.CNR%3D1337906&database=RX&origin=ReaxysOutput&ln=
,CCC=C(C)C,1340497.0,https://www.reaxys.com/reaxys/secured/hopinto.do?context=S&query=IDE.XRN%3D1340497&database=RX&origin=ReaxysOutput&ln=,(1260 of 4000),625-27-4,"2-methyl-2-pentene; 2-methylpent-2-ene; 1-ethyl-2,2-dimethyl-ethylene",(CH3)2CCHC2H5,C6H12,84.1613,acyclic,,JMMZCWZIJXAGKW-UHFFFAOYSA-N,,,,Identification(227); Physical Data(106); Spectra(39); Bioactivity(38),449.0,739.0,-135.07,,,,,,Report; Rossini; Selected values of chemical thermodynamic properties;; ; Article; Streiff et al.; Journal of Research of the National Bureau of Standards (United States); vol. 41; (1948); p. 345; Chem.Abstr.; (1949); p. 2924;,https://www.reaxys.com/reaxys/secured/hopinto.do?context=C&query=CNR.CNR%3D1346274&database=RX&origin=ReaxysOutput&ln=
,CCCC(C)=C,1340499.0,https://www.reaxys.com/reaxys/secured/hopinto.do?context=S&query=IDE.XRN%3D1340499&database=RX&origin=ReaxysOutput&ln=,(1261 of 4000),763-29-1,2-Methyl-1-pentene; 2-methylpentene,CH2C(CH3)CH2CH2CH3,C6H12,84.1613,acyclic,,WWUVJRULCWHUSA-UHFFFAOYSA-N,,,,Identification(364); Physical Data(123); Spectra(39),550.0,1017.0,-135.84,,,,,,"Article; Schuhmacher; Wibaut; Recueil des Travaux Chimiques des Pays-Bas; vol. 72; (1953); p. 1037,1041;",https://www.reaxys.com/reaxys/secured/hopinto.do?context=C&query=CNR.CNR%3D1184314&database=RX&origin=ReaxysOutput&ln=
,CC(C)(C)C=C,1697101.0,https://www.reaxys.com/reaxys/secured/hopinto.do?context=S&query=IDE.XRN%3D1697101&database=RX&origin=ReaxysOutput&ln=,(1262 of 4000),558-37-2,"t-butylethene; 3,3-dimethyl-1-butene; tert-butylethylene; neohexene",CH3C(CH3)2CHCH2,C6H12,84.1613,acyclic,,PKXHXOTZMFCXSH-UHFFFAOYSA-N,,,,Identification(430); Physical Data(128); Spectra(50),1689.0,1678.0,-115.07,,,,,,Article; Boord et al.; Industrial and Engineering Chemistry; vol. 41; (1949); p. 615;,https://www.reaxys.com/reaxys/secured/hopinto.do?context=C&query=CNR.CNR%3D1337906&database=RX&origin=ReaxysOutput&ln=
,CCC(=C)CC,1697102.0,https://www.reaxys.com/reaxys/secured/hopinto.do?context=S&query=IDE.XRN%3D1697102&database=RX&origin=ReaxysOutput&ln=,(1263 of 4000),760-21-4,"2-ethyl-1-butene; 2-ethyl-but-1-ene; 3-methylenepentane; 2-ethylbutene; 1,1-diethylethene; 1,1-diethylethylene",(C2H5)2CCH2,C6H12,84.1613,acyclic,,RYKZRKKEYSRDNF-UHFFFAOYSA-N,,,,Identification(148); Physical Data(66); Spectra(26),652.0,498.0,-131.53,,,,,,Report; Rossini; Selected values of chemical thermodynamic properties;; ; Article; Streiff et al.; Journal of Research of the National Bureau of Standards (United States); vol. 41; (1948); p. 345; Chem.Abstr.; (1949); p. 2924;,https://www.reaxys.com/reaxys/secured/hopinto.do?context=C&query=CNR.CNR%3D1346274&database=RX&origin=ReaxysOutput&ln=
,CC\C(C)=C/C,1718855.0,https://www.reaxys.com/reaxys/secured/hopinto.do?context=S&query=IDE.XRN%3D1718855&database=RX&origin=ReaxysOutput&ln=,(1264 of 4000),922-62-3,3-Methyl-cis-2-penten,C6H12,C6H12,84.1613,acyclic,,BEQGRRJLJLVQAQ-XQRVVYSFSA-N,,,,Identification(111); Physical Data(70); Spectra(15),132.0,210.0,-138.45,,,,,,Report; Rossini; Selected values of chemical thermodynamic properties;; ; Article; Streiff et al.; Journal of Research of the National Bureau of Standards (United States); vol. 41; (1948); p. 345; Chem.Abstr.; (1949); p. 2924;,https://www.reaxys.com/reaxys/secured/hopinto.do?context=C&query=CNR.CNR%3D1346274&database=RX&origin=ReaxysOutput&ln=
,CC\C(C)=C\C,1718856.0,https://www.reaxys.com/reaxys/secured/hopinto.do?context=S&query=IDE.XRN%3D1718856&database=RX&origin=ReaxysOutput&ln=,(1265 of 4000),616-12-6,(E)-3-methyl-2-pentene; (E)-3-Methyl-2-penten,C6H12,C6H12,84.1613,acyclic,,BEQGRRJLJLVQAQ-GQCTYLIASA-N,,,,Identification(139); Physical Data(52); Spectra(17),151.0,254.0,-134.84,,,,,,Report; Rossini; Selected values of chemical thermodynamic properties;; ; Article; Streiff et al.; Journal of Research of the National Bureau of Standards (United States); vol. 41; (1948); p. 176;,https://www.reaxys.com/reaxys/secured/hopinto.do?context=C&query=CNR.CNR%3D1346274&database=RX&origin=ReaxysOutput&ln=
,CC\C=C/CC,1718858.0,https://www.reaxys.com/reaxys/secured/hopinto.do?context=S&query=IDE.XRN%3D1718858&database=RX&origin=ReaxysOutput&ln=,(1266 of 4000),7642-09-3,cis-3-hexene; (Z)-3-hexene; (Z)-hex-3-ene; cis-hex-3-ene,C2H5CHCHC2H5,C6H12,84.1613,acyclic,,ZQDPJFUHLCOCRG-WAYWQWQTSA-N,,,,Identification(130); Physical Data(80); Spectra(41),319.0,521.0,-138.45,,,,,,"Article; Hoff et al.; Journal of the American Chemical Society; vol. 73; (1951); p. 3329,3334;",https://www.reaxys.com/reaxys/secured/hopinto.do?context=C&query=CNR.CNR%3D1396329&database=RX&origin=ReaxysOutput&ln=
,CC\C=C\CC,1718859.0,https://www.reaxys.com/reaxys/secured/hopinto.do?context=S&query=IDE.XRN%3D1718859&database=RX&origin=ReaxysOutput&ln=,(1267 of 4000),13269-52-8,trans-3-Hexene; trans-hex-3-ene,C2H5CHCHC2H5,C6H12,84.1613,acyclic,,ZQDPJFUHLCOCRG-AATRIKPKSA-N,,,,Identification(448); Physical Data(104); Spectra(48),564.0,1028.0,-114.28,,,,,,"Article; Pomerantz et al.; Journal of Research of the National Bureau of Standards (United States); vol. 52; (1954); p. 59,60;",https://www.reaxys.com/reaxys/secured/hopinto.do?context=C&query=CNR.CNR%3D1404246&database=RX&origin=ReaxysOutput&ln=
,CCC\C=C/C,1719019.0,https://www.reaxys.com/reaxys/secured/hopinto.do?context=S&query=IDE.XRN%3D1719019&database=RX&origin=ReaxysOutput&ln=,(1268 of 4000),7688-21-3,cis-2-hexene; (Z)-2-hexene; cis-hex-2-ene; (Z)-hex-2-ene; 2-hexene; hex-2-ene,CH3CH2CH2CHCHCH3,C6H12,84.1613,acyclic,,RYPKRALMXUUNKS-HYXAFXHYSA-N,,,,Identification(201); Physical Data(76); Spectra(41),194.0,523.0,-142.38,,,,,,"Article; Hoff et al.; Journal of the American Chemical Society; vol. 73; (1951); p. 3329,3334;",https://www.reaxys.com/reaxys/secured/hopinto.do?context=C&query=CNR.CNR%3D1396329&database=RX&origin=ReaxysOutput&ln=