Structure: Image,SMILES,Substance Identification: Reaxys Registry Number,Links to Reaxys,Data Count,CAS Registry Number,Chemical Name,Linear Structure Formula,Molecular Formula,Molecular Weight,Type of Substance,Type and Modification,InChI Key,Composition: Comp. Name,Composition: Comp. Conc.,Composition: Comp. Attrib.,Field Availability,Number of Reactions,Number of References,Melting Point: Melting Point [C],Solvent (Melting Point),Location,Comment (Melting Point),Crystallizes With,Amount (Melting Point) [mol],References,Links to Reaxys.1
,CCCF,1730770.0,https://www.reaxys.com/reaxys/secured/hopinto.do?context=S&query=IDE.XRN%3D1730770&database=RX&origin=ReaxysOutput&ln=,(372 of 4000),460-13-9,propyl fluoride; 1-fluoropropane; 3-fluoropropane,C3H7F,C3H7F,62.087,acyclic,,JRHNUZCXXOTJCA-UHFFFAOYSA-N,,,,Identification(45); Physical Data(29); Spectra(28),17.0,106.0,-159,,,,,,Article; Grosse; Wackher; Linn; Journal of Physical Chemistry; vol. 44; (1940); p. 293;,https://www.reaxys.com/reaxys/secured/hopinto.do?context=C&query=CNR.CNR%3D1231103&database=RX&origin=ReaxysOutput&ln=
,CC(C)F,1730781.0,https://www.reaxys.com/reaxys/secured/hopinto.do?context=S&query=IDE.XRN%3D1730781&database=RX&origin=ReaxysOutput&ln=,(373 of 4000),420-26-8,2-propylfluoride,(CH3)2CHF,C3H7F,62.087,acyclic,,PRNZBCYBKGCOFI-UHFFFAOYSA-N,,,,Identification(70); Physical Data(42); Spectra(35),38.0,141.0,-133.4,,,,,,Article; Grosse; Wackher; Linn; Journal of Physical Chemistry; vol. 44; (1940); p. 293;,https://www.reaxys.com/reaxys/secured/hopinto.do?context=C&query=CNR.CNR%3D1231103&database=RX&origin=ReaxysOutput&ln=
,SC=O,1900395.0,https://www.reaxys.com/reaxys/secured/hopinto.do?context=S&query=IDE.XRN%3D1900395&database=RX&origin=ReaxysOutput&ln=,(374 of 4000),16890-80-5,thioformic acid; Monothioameisensaeure; monothioformic acid; Thioameisensaeure; alpha-mercaptoketone,HCOSH,CH2OS,62.0923,acyclic,,AWIJRPNMLHPLNC-UHFFFAOYSA-N,,,,Identification(27); Physical Data(15); Spectra(15),8.0,36.0,-68,,,,,,"Article; Engler; Gattow; Zeitschrift fur Anorganische und Allgemeine Chemie; vol. 388; (1972); p. 78,86, 87;; ; Article; Gattow; Engler; Angewandte Chemie; vol. 83; (1971); p. 444;",https://www.reaxys.com/reaxys/secured/hopinto.do?context=C&query=CNR.CNR%3D3957412&database=RX&origin=ReaxysOutput&ln=
,NN=S,15039954.0,https://www.reaxys.com/reaxys/secured/hopinto.do?context=S&query=IDE.XRN%3D15039954&database=RX&origin=ReaxysOutput&ln=,(375 of 4000),125145-79-1,Thiono hydrazine,NH2NS,H2N2S,62.0953,,,NOKUIIONGVTVQM-UHFFFAOYSA-N,,,,Identification(6); Physical Data(2),1.0,6.0,148 - 149,,,,,,Patent; AKZO NOBEL NV; US4911745; (1990); A;,https://www.reaxys.com/reaxys/secured/hopinto.do?context=C&query=CNR.CNR%3D109930&database=RX&origin=ReaxysOutput&ln=
,CCS,773638.0,https://www.reaxys.com/reaxys/secured/hopinto.do?context=S&query=IDE.XRN%3D773638&database=RX&origin=ReaxysOutput&ln=,(378 of 4000),75-08-1,ethanethiol; mercaptoethanol; EtSH,SHC2H5,C2H6S,62.1356,acyclic,,DNJIEGIFACGWOD-UHFFFAOYSA-N,,,,Identification(290); Physical Data(344); Spectra(88); Bioactivity(349),9322.0,6641.0,-147.89,,,,,,"Article; Haines et al.; Journal of Physical Chemistry; vol. 58; (1954); p. 270,274;",https://www.reaxys.com/reaxys/secured/hopinto.do?context=C&query=CNR.CNR%3D602171&database=RX&origin=ReaxysOutput&ln=
,CSC,1696847.0,https://www.reaxys.com/reaxys/secured/hopinto.do?context=S&query=IDE.XRN%3D1696847&database=RX&origin=ReaxysOutput&ln=,(379 of 4000),75-18-3,dimethylsulfide; dimethyl sulphide; dimethylsulfane,H3CSCH3,C2H6S,62.1356,acyclic,,QMMFVYPAHWMCMS-UHFFFAOYSA-N,,,,Identification(5899); Physical Data(484); Spectra(152); Bioactivity(476),3560.0,9250.0,37,,,,,,"Article; Knorr, Rudolf; Menke, Thomas; Freudenreich, Johannes; Pires, Claudio; Beilstein Journal of Organic Chemistry; vol. 10; (2014); p. 307 - 315;",https://www.reaxys.com/reaxys/secured/hopinto.do?context=C&query=CNR.CNR%3D62739034&database=RX&origin=ReaxysOutput&ln=
,CO[SiH3],1839338.0,https://www.reaxys.com/reaxys/secured/hopinto.do?context=S&query=IDE.XRN%3D1839338&database=RX&origin=ReaxysOutput&ln=,(380 of 4000),2171-96-2,methoxysilane; Methoxysilan; Silyl-methylether; Monomethoxy-silan; Methyl-silyl-aether; hydromethoxysilane,CH3OSiH3,CH6OSi,62.1435,acyclic,,ARYZCSRUUPFYMY-UHFFFAOYSA-N,,,,Identification(175); Physical Data(9); Spectra(7),11.0,191.0,-98.6 - -98.4,,,,,,"Article; Sternbach; MacDiarmid; Journal of the American Chemical Society; vol. 83; (1961); p. 3384,3385, 3386;",https://www.reaxys.com/reaxys/secured/hopinto.do?context=C&query=CNR.CNR%3D3794980&database=RX&origin=ReaxysOutput&ln=
,ClC=C,1731576.0,https://www.reaxys.com/reaxys/secured/hopinto.do?context=S&query=IDE.XRN%3D1731576&database=RX&origin=ReaxysOutput&ln=,(382 of 4000),75-01-4,chloroethylene; vinyl chloride,H2CCHCl,C2H3Cl,62.4988,acyclic,,BZHJMEDXRYGGRV-UHFFFAOYSA-N,,,,Identification(3814); Physical Data(232); Spectra(84); Bioactivity(300),1036.0,5376.0,-153.8,,,,,,"Article; Golubev et al.; Journal of applied chemistry of the USSR; vol. 44; (1971); p. 1446,1447; Zhurnal Prikladnoi Khimii (Sankt-Peterburg, Russian Federation); vol. 44; (1971); p. 1424;",https://www.reaxys.com/reaxys/secured/hopinto.do?context=C&query=CNR.CNR%3D4531441&database=RX&origin=ReaxysOutput&ln=
,ON(=O)=O,3587310.0,https://www.reaxys.com/reaxys/secured/hopinto.do?context=S&query=IDE.XRN%3D3587310&database=RX&origin=ReaxysOutput&ln=,(383 of 4000),7697-37-2,nitric acid,HNO3,HNO3,63.0128,Isotope or isotope containing compound,,GRYLNZFGIOXLOG-UHFFFAOYSA-N,,,,Identification(5617); Physical Data(854); Spectra(201); Bioactivity(1017),15310.0,20263.0,-41,,,,,,"Article; Biltz, W.; Huelsmann, O.; Zeitschrift fur anorganische Chemie; vol. 207; (1932); p. 377;; ; Article; Gmelin Handbuch der Anorganischen Chemie; vol. N: MVol.4; 7.2, page 962 - 971; (from Gmelin)",https://www.reaxys.com/reaxys/secured/hopinto.do?context=C&query=CNR.CNR%3D7201659&database=RX&origin=ReaxysOutput&ln=
,[H+].[O-][N+]([O-])=O,13334362.0,https://www.reaxys.com/reaxys/secured/hopinto.do?context=S&query=IDE.XRN%3D13334362&database=RX&origin=ReaxysOutput&ln=,(384 of 4000),,nitric acid; hydrogen nitrate,H(1+)*NO3(1-),H*NO3,63.0128,,,NHNBFGGVMKEFGY-UHFFFAOYSA-O,,,,Identification(11); Physical Data(2); Spectra(1),20.0,23.0,123 - 124,,,,,,Patent; DR. WILLMAR SCHWABE GMBH &amp; CO. KG; US4363805; (1982); A;,https://www.reaxys.com/reaxys/secured/hopinto.do?context=C&query=CNR.CNR%3D7091563&database=RX&origin=ReaxysOutput&ln=
,[2H]C([2H])([2H])C(O)=O,1745280.0,https://www.reaxys.com/reaxys/secured/hopinto.do?context=S&query=IDE.XRN%3D1745280&database=RX&origin=ReaxysOutput&ln=,(385 of 4000),1112-02-3,d(3)-acetic acid,C(2)H3COOH,C2H4O2,63.0287,acyclic,,QTBSBXVTEAMEQO-FIBGUPNXSA-N,,,,Identification(34); Physical Data(48); Spectra(42),73.0,167.0,17.2,,,,,,Article; Halford; Anderson; Journal of the American Chemical Society; vol. 58; (1936); p. 739;,https://www.reaxys.com/reaxys/secured/hopinto.do?context=C&query=CNR.CNR%3D1142258&database=RX&origin=ReaxysOutput&ln=
,[15NH2][13C]([15NH2])=O,1927256.0,https://www.reaxys.com/reaxys/secured/hopinto.do?context=S&query=IDE.XRN%3D1927256&database=RX&origin=ReaxysOutput&ln=,(386 of 4000),58069-83-3,"[13C,15N2]urea; <(13)C,(15)N2>urea",H2(15)N(13)CO(15)NH2,CH4N2O,63.0312,acyclic; Isotope or isotope containing compound,,XSQUKJJJFZCRTK-VMIGTVKRSA-N,,,,Identification(11); Physical Data(2); Spectra(16); Bioactivity(3),22.0,22.0,133 - 135,,,,,,"Article; Whaley; Ott; Journal of Labelled Compounds; vol. 11; (1975); p. 167,169, 170;",https://www.reaxys.com/reaxys/secured/hopinto.do?context=C&query=CNR.CNR%3D3965832&database=RX&origin=ReaxysOutput&ln=
,NC(F)=O,773701.0,https://www.reaxys.com/reaxys/secured/hopinto.do?context=S&query=IDE.XRN%3D773701&database=RX&origin=ReaxysOutput&ln=,(387 of 4000),420-33-7,carbamoyl fluoride; Carbamidsaeure-fluorid; Carbamoylfluorid; carbamic acid fluoride; fluoro-amide; alpha-fluoroamide,FCONH2,CH2FNO,63.0314,acyclic,,PVXRCPDNJSFYBV-UHFFFAOYSA-N,,,,Identification(10); Physical Data(23); Spectra(8),15.0,18.0,47,,,,,,"Article; Olah,G.A. et al.; Journal of the American Chemical Society; vol. 95; (1973); p. 7672 - 7680;",https://www.reaxys.com/reaxys/secured/hopinto.do?context=C&query=CNR.CNR%3D67245&database=RX&origin=ReaxysOutput&ln=
,N[14C]([15NH2])=O,16935161.0,https://www.reaxys.com/reaxys/secured/hopinto.do?context=S&query=IDE.XRN%3D16935161&database=RX&origin=ReaxysOutput&ln=,(388 of 4000),,,((15)NH2)(NH2)(14)CO,CH4N2O,63.0379,Isotope or isotope containing compound,,XSQUKJJJFZCRTK-WWQQEUHZSA-N,,,,Identification(5); Physical Data(1),1.0,2.0,132 - 133,acetone,,,,,"Article; Williams, D. L.; Ronzio, A. R.; Journal of the American Chemical Society; vol. 74; (1952); p. 2407;; ; Article; Gmelin Handbuch der Anorganischen Chemie; vol. C: MVol.D1; 45.1.11, page 399 - 401; (from Gmelin)",https://www.reaxys.com/reaxys/secured/hopinto.do?context=C&query=CNR.CNR%3D7464412&database=RX&origin=ReaxysOutput&ln=
,OC=O.[H]N([H])[H],3591233.0,https://www.reaxys.com/reaxys/secured/hopinto.do?context=S&query=IDE.XRN%3D3591233&database=RX&origin=ReaxysOutput&ln=,(389 of 4000),16712-16-6; 64165-14-6; 65387-22-6; 70179-79-2; 540-69-2,ammonium formate; ammonium formiate; ammonia formate; HCO2NH4; ammsnium formate,H3N*CH2O2,CH2O2*H3N,63.0562,acyclic,,VZTDIZULWFCMLS-UHFFFAOYSA-N,,,,Identification(61); Physical Data(3); Spectra(9),659.0,424.0,119,,,Decomposition,,,Article; Shimoyama; Terasaki; Nomoto; Mita; Bulletin of the Chemical Society of Japan; vol. 75; 1; (2002); p. 153 - 154;,https://www.reaxys.com/reaxys/secured/hopinto.do?context=C&query=CNR.CNR%3D6333796&database=RX&origin=ReaxysOutput&ln=
,[2H]C([2H])(O)CN,1918730.0,https://www.reaxys.com/reaxys/secured/hopinto.do?context=S&query=IDE.XRN%3D1918730&database=RX&origin=ReaxysOutput&ln=,(391 of 4000),59099-87-5,"2-hydroxyethylamine-2,2-d2; [1,1-2H2]-ethanolamine; 2-amino(1,1-2H2)ethan-1-ol; 2-amino-1,1-dideuterio-ethanol",C2H5(2)H2NO,C2H7NO,63.0678,acyclic,,HZAXFHJVJLSVMW-CBTSVUPCSA-N,,,,Identification(7); Physical Data(5); Spectra(7),15.0,16.0,79 - 80,,,,,,"Article; Babior; Journal of Biological Chemistry; vol. 244; (1969); p. 449,450;",https://www.reaxys.com/reaxys/secured/hopinto.do?context=C&query=CNR.CNR%3D4077511&database=RX&origin=ReaxysOutput&ln=
,CN(C)F,2231109.0,https://www.reaxys.com/reaxys/secured/hopinto.do?context=S&query=IDE.XRN%3D2231109&database=RX&origin=ReaxysOutput&ln=,(392 of 4000),14722-43-1,fluorodimethylamine; Dimethylfluoramin; dimethyl-N-fluoroamine,(CH3)2NF,C2H6FN,63.0747,acyclic,,PIIHPBHYDCOPKZ-UHFFFAOYSA-N,,,,Identification(9); Physical Data(4); Spectra(10),7.0,7.0,-113,,,,,,"Note; Wiesboeck, Robert A.; Ruff, John K.; Inorganic Chemistry; vol. 5; 9; (1966); p. 1629 - 1630;",https://www.reaxys.com/reaxys/secured/hopinto.do?context=C&query=CNR.CNR%3D4287967&database=RX&origin=ReaxysOutput&ln=
,N=S=O,14939421.0,https://www.reaxys.com/reaxys/secured/hopinto.do?context=S&query=IDE.XRN%3D14939421&database=RX&origin=ReaxysOutput&ln=,(393 of 4000),56971-20-1; 13817-04-4; 40908-38-1,thionylimide; sulfinylimine; sulphinylamine,HNSO,HNOS,63.08,,,PIZNQHDTOZMVBH-UHFFFAOYSA-N,,,,Identification(58); Physical Data(11); Spectra(16),23.0,78.0,-85,,,,,,"Article; Schenk, P. W.; Chemische Berichte; vol. 75; (1942); p. 94 - 99;; ; Article; Gmelin Handbuch der Anorganischen Chemie; vol. S: MVol.B3; 24, page 1580 - 1582; (from Gmelin)",https://www.reaxys.com/reaxys/secured/hopinto.do?context=C&query=CNR.CNR%3D7552289&database=RX&origin=ReaxysOutput&ln=
,COC.[H]N([H])[H],16834253.0,https://www.reaxys.com/reaxys/secured/hopinto.do?context=S&query=IDE.XRN%3D16834253&database=RX&origin=ReaxysOutput&ln=,(394 of 4000),,ammonia-dimethyl ether; methyl ether amine,CH3OCH3*NH3,C2H6O*H3N,63.0996,,,ZMCUBGBEPHLPAI-UHFFFAOYSA-N,,,,Identification(6); Physical Data(1),,4.0,-89.3,,,,,,"Article; Baume; Perrot; Comptes Rendus Hebdomadaires des Seances de l'Academie des Sciences; vol. 151; (1910); p. 528; Journal de Chimie Physique et de Physico-Chimie Biologique; vol. 12; (1914); p. 231;; ; Article; Baume, G.; Perrot, F. L.; Journal de Chimie Physique et de Physico-Chimie Biologique; vol. 12; (1914); p. 230;; ; Article; Gmelin Handbuch der Anorganischen Chemie; vol. N: MVol.2; 5.3, page 494 - 499; (from Gmelin)",https://www.reaxys.com/reaxys/secured/hopinto.do?context=C&query=CNR.CNR%3D1311446&database=RX&origin=ReaxysOutput&ln=
,C[SH]=N,15282160.0,https://www.reaxys.com/reaxys/secured/hopinto.do?context=S&query=IDE.XRN%3D15282160&database=RX&origin=ReaxysOutput&ln=,(395 of 4000),956464-96-3,S-methyl-imino-thioether,CH5NS,CH5NS,63.1234,,,APFNVKQYBBIJIZ-UHFFFAOYSA-N,,,,Identification(5); Physical Data(3),1.0,2.0,270,,,,,,Patent; MERCK KGAA; US4024272; (1977); A;,https://www.reaxys.com/reaxys/secured/hopinto.do?context=C&query=CNR.CNR%3D184060&database=RX&origin=ReaxysOutput&ln=
,CB(F)F,1731053.0,https://www.reaxys.com/reaxys/secured/hopinto.do?context=S&query=IDE.XRN%3D1731053&database=RX&origin=ReaxysOutput&ln=,(400 of 4000),373-64-8,(methyl)difluoroborane; Methylbor-difluorid; Methyldifluorboran; Difluor-methyl-bor,BF2CH3,CH3BF2,63.8426,acyclic,,AYIZUGQPPRPVJJ-UHFFFAOYSA-N,,,,Identification(10); Physical Data(38); Spectra(37),34.0,91.0,-130.4,,,,,,Article; Burg; Journal of the American Chemical Society; vol. 62; (1940); p. 2232;,https://www.reaxys.com/reaxys/secured/hopinto.do?context=C&query=CNR.CNR%3D1251783&database=RX&origin=ReaxysOutput&ln=
,OP=O,11609940.0,https://www.reaxys.com/reaxys/secured/hopinto.do?context=S&query=IDE.XRN%3D11609940&database=RX&origin=ReaxysOutput&ln=,(402 of 4000),14097-15-5,phosphinic acid; hypophosphorous acid,OPOH,HO2P,63.9805,Coordination compound,,GQZXNSPRSGFJLY-UHFFFAOYSA-N,,,,Identification(389); Physical Data(1); Spectra(7); Bioactivity(21),18.0,419.0,162 - 167,,,,,,Patent; SANOFI; US5006515; (1991); A;,https://www.reaxys.com/reaxys/secured/hopinto.do?context=C&query=CNR.CNR%3D116838&database=RX&origin=ReaxysOutput&ln=
,OC(F)=O,2958594.0,https://www.reaxys.com/reaxys/secured/hopinto.do?context=S&query=IDE.XRN%3D2958594&database=RX&origin=ReaxysOutput&ln=,(403 of 4000),35576-88-6,Fluorkohlensaeure; fluorocarboxylic acid; hydroxyfluoroketone; fluorometholon; fluoro-metholone; fluorohydroxyketone; fluormetholone; fluoroformate,CHFO2,CHFO2,64.0161,acyclic,,ABDBNWQRPYOPDF-UHFFFAOYSA-N,,,,Identification(53); Physical Data(4); Spectra(3),5.0,49.0,114 - 117,,,,,,Patent; WEGMANN UNTERNEHMENS-HOLDING GMBH &amp; CO. KG; US4612143; (1986); A;,https://www.reaxys.com/reaxys/secured/hopinto.do?context=C&query=CNR.CNR%3D7105907&database=RX&origin=ReaxysOutput&ln=
,[2H]OC(=O)C([2H])([2H])[2H],1748971.0,https://www.reaxys.com/reaxys/secured/hopinto.do?context=S&query=IDE.XRN%3D1748971&database=RX&origin=ReaxysOutput&ln=,(404 of 4000),1186-52-3,tetradeuterioacetic acid,CD3COOD,C2H4O2,64.0208,acyclic,,QTBSBXVTEAMEQO-GUEYOVJQSA-N,,,,Identification(33); Physical Data(127); Spectra(38),399.0,402.0,6 - 7,,,,,,Article; Gragerow et al.; Journal of general chemistry of the USSR; vol. 31; (1961); p. 1029; Zhurnal Obshchei Khimii; vol. 31; (1961); p. 1113; Chem.Abstr.; 23306; (1961);,https://www.reaxys.com/reaxys/secured/hopinto.do?context=C&query=CNR.CNR%3D3750472&database=RX&origin=ReaxysOutput&ln=
,[15NH2][14C]([15NH2])=O,16935162.0,https://www.reaxys.com/reaxys/secured/hopinto.do?context=S&query=IDE.XRN%3D16935162&database=RX&origin=ReaxysOutput&ln=,(405 of 4000),117070-60-7,,((15)NH2)2(14)CO,CH4N2O,64.0312,Isotope or isotope containing compound,,XSQUKJJJFZCRTK-HBHHPXNASA-N,,,,Identification(5); Physical Data(1),1.0,2.0,132 - 133,,,,,,"Article; Gmelin Handbuch der Anorganischen Chemie; vol. C: MVol.D1; 45.1.11, page 399 - 401;; ; Article; Schuette, H. R.; Munsche, D.; Chemische Technik; vol. 12; (1960); p. 682; (from Gmelin)",https://www.reaxys.com/reaxys/secured/hopinto.do?context=C&query=CNR.CNR%3D7468433&database=RX&origin=ReaxysOutput&ln=
,[2H]C([2H])([2H])C(=O)C([2H])([2H])[2H],1702935.0,https://www.reaxys.com/reaxys/secured/hopinto.do?context=S&query=IDE.XRN%3D1702935&database=RX&origin=ReaxysOutput&ln=,(406 of 4000),666-52-4,[(2)H6]acetone; acetone-d6,((2)H3C)2CO,C3H6O,64.0324,acyclic,,CSCPPACGZOOCGX-WFGJKAKNSA-N,,,,Identification(105); Physical Data(150); Spectra(93); Bioactivity(1),790.0,1045.0,-93.8,,,Praeparat von ca. 92prozent Deuterium-Gehalt.,,,"Article; Reitz; Kopp; Zeitschrift fur Physikalische Chemie, Abteilung A: Chemische Thermodynamik, Kinetik, Elektrochemie, Eigenschaftslehre; vol. 184; (1939); p. 431;",https://www.reaxys.com/reaxys/secured/hopinto.do?context=C&query=CNR.CNR%3D1142275&database=RX&origin=ReaxysOutput&ln=
,FC(F)=C,1733321.0,https://www.reaxys.com/reaxys/secured/hopinto.do?context=S&query=IDE.XRN%3D1733321&database=RX&origin=ReaxysOutput&ln=,(407 of 4000),75-38-7,Vinylidene fluoride; vinylidene difluoride,F2CCH2,C2H2F2,64.0347,acyclic,,BQCIDUSAKPWEOX-UHFFFAOYSA-N,,,,Identification(2263); Physical Data(100); Spectra(74); Bioactivity(147),805.0,2931.0,-144,,,,,,"Article; Lentz, Dieter; Bach, Ansgar; Buschmann, Juergen; Luger, Peter; Messerschmidt, Marc; Chemistry - A European Journal; vol. 10; 20; (2004); p. 5059 - 5066;",https://www.reaxys.com/reaxys/secured/hopinto.do?context=C&query=CNR.CNR%3D6530410&database=RX&origin=ReaxysOutput&ln=
,F\C=C/F,1839623.0,https://www.reaxys.com/reaxys/secured/hopinto.do?context=S&query=IDE.XRN%3D1839623&database=RX&origin=ReaxysOutput&ln=,(408 of 4000),1630-77-9,"(Z)-1,2-difluoro-ethene",FHCCHF,C2H2F2,64.0347,acyclic,,WFLOTYSKFUPZQB-UPHRSURJSA-N,,,,Identification(38); Physical Data(48); Spectra(48),82.0,154.0,-101.05,,,,,,Article; Craig; Entemann; Journal of the American Chemical Society; vol. 83; (1961); p. 3048;,https://www.reaxys.com/reaxys/secured/hopinto.do?context=C&query=CNR.CNR%3D3750490&database=RX&origin=ReaxysOutput&ln=
,F\C=C\F,1839624.0,https://www.reaxys.com/reaxys/secured/hopinto.do?context=S&query=IDE.XRN%3D1839624&database=RX&origin=ReaxysOutput&ln=,(409 of 4000),1630-78-0,"(E)-1,2-difluoroethene",CHFCHF,C2H2F2,64.0347,acyclic,,WFLOTYSKFUPZQB-OWOJBTEDSA-N,,,,Identification(118); Physical Data(33); Spectra(38),59.0,190.0,-88.15,,,,,,Article; Craig; Entemann; Journal of the American Chemical Society; vol. 83; (1961); p. 3048;,https://www.reaxys.com/reaxys/secured/hopinto.do?context=C&query=CNR.CNR%3D3750490&database=RX&origin=ReaxysOutput&ln=
,[H]O[H].OC=O,3668403.0,https://www.reaxys.com/reaxys/secured/hopinto.do?context=S&query=IDE.XRN%3D3668403&database=RX&origin=ReaxysOutput&ln=,(410 of 4000),19215-28-2,water formic acid; formic acid monohydrate; formic acid ; hydrate; Ameisensaeure; Hydrat; formic acid water,HCOOH*H2O,CH2O2*H2O,64.041,acyclic,,HQVFCQRVQFYGRJ-UHFFFAOYSA-N,,,,Identification(119); Physical Data(5),1.0,119.0,-30.7,,,,,,Article; Glagolewa; Zhurnal Obshchei Khimii; vol. 11; (1941); p. 766; Chem.Abstr.; (1942); p. 2467;,https://www.reaxys.com/reaxys/secured/hopinto.do?context=C&query=CNR.CNR%3D1172113&database=RX&origin=ReaxysOutput&ln=
,[Li]CCCC,1209227.0,https://www.reaxys.com/reaxys/secured/hopinto.do?context=S&query=IDE.XRN%3D1209227&database=RX&origin=ReaxysOutput&ln=,(412 of 4000),109-72-8; 29786-93-4,n-butyllithium; n-BuLi; butyllithium; BuLi,(CH3)3CLi,C4H9Li,64.0565,acyclic,,MZRVEZGGRBJDDB-UHFFFAOYSA-N,,,,Identification(5874); Physical Data(119); Spectra(93); Bioactivity(753),18874.0,15021.0,277 - 279,,,,,,"Article; Mori, Hiroki; Suetsugu, Masato; Nishinaga, Shuhei; Chang, Ning-Hui; Nonobe, Hikaru; Okuda, Yasuhiro; Nishihara, Yasushi; Journal of Polymer Science, Part A: Polymer Chemistry; vol. 53; 5; (2015); p. 709 - 718;",https://www.reaxys.com/reaxys/secured/hopinto.do?context=C&query=CNR.CNR%3D65385154&database=RX&origin=ReaxysOutput&ln=