Structure: Image,SMILES,Substance Identification: Reaxys Registry Number,Links to Reaxys,Data Count,CAS Registry Number,Chemical Name,Linear Structure Formula,Molecular Formula,Molecular Weight,Type of Substance,Type and Modification,InChI Key,Composition: Comp. Name,Composition: Comp. Conc.,Composition: Comp. Attrib.,Field Availability,Number of Reactions,Number of References,Melting Point: Melting Point [C],Solvent (Melting Point),Location,Comment (Melting Point),Crystallizes With,Amount (Melting Point) [mol],References,Links to Reaxys.1
,CCOCO,1900237.0,https://www.reaxys.com/reaxys/secured/hopinto.do?context=S&query=IDE.XRN%3D1900237&database=RX&origin=ReaxysOutput&ln=,(830 of 4000),10171-38-7,2-ethoxyethanol; ethoxymethanol,C2H5OCH2OH,C3H8O2,76.0953,acyclic,,RRLWYLINGKISHN-UHFFFAOYSA-N,,,,Identification(17); Physical Data(4); Spectra(3),21.0,32.0,125 - 128,,,,,,Patent; GLAXOSMITHKLINE PLC; US4478849; (1984); A;,https://www.reaxys.com/reaxys/secured/hopinto.do?context=C&query=CNR.CNR%3D54290&database=RX&origin=ReaxysOutput&ln=
,O.CC(C)=O,13192210.0,https://www.reaxys.com/reaxys/secured/hopinto.do?context=S&query=IDE.XRN%3D13192210&database=RX&origin=ReaxysOutput&ln=,(831 of 4000),,acetone - water; water acetone; acetone H2O,C3H6O*H2O,C3H6O*H2O,76.0953,,,OVARTBFNCCXQKS-UHFFFAOYSA-N,,,,Identification(1864); Physical Data(1),28.0,1811.0,184 - 186,,,,,,Patent; TAKEDA PHARMACEUTICAL COMPANY LIMITED; US4362740; (1982); A;,https://www.reaxys.com/reaxys/secured/hopinto.do?context=C&query=CNR.CNR%3D7107613&database=RX&origin=ReaxysOutput&ln=
,C1=CC#CC=C1,1071221.0,https://www.reaxys.com/reaxys/secured/hopinto.do?context=S&query=IDE.XRN%3D1071221&database=RX&origin=ReaxysOutput&ln=,(832 of 4000),462-80-6; 53356-60-8; 193469-78-2,benzyne; o-benzyne,C6H4,C6H4,76.0978,isocyclic,,KLYCPFXDDDMZNQ-UHFFFAOYSA-N,,,,Identification(804); Physical Data(22); Spectra(17),397.0,1013.0,92 - 93,,,,,,"Article; Brown,R.F.C. et al.; Australian Journal of Chemistry; vol. 29; (1976); p. 1705 - 1712;",https://www.reaxys.com/reaxys/secured/hopinto.do?context=C&query=CNR.CNR%3D3282&database=RX&origin=ReaxysOutput&ln=
,CC(C)(C)F,1730812.0,https://www.reaxys.com/reaxys/secured/hopinto.do?context=S&query=IDE.XRN%3D1730812&database=RX&origin=ReaxysOutput&ln=,(833 of 4000),353-61-7,tert-butylfluoride; tert-Butylfluorid; t-Butylfluorid; t-butyl fluoride; 2-fluoro-2-methylpropane; 2-Fluor-2-methyl-propan,(CH3)3CF,C4H9F,76.1139,acyclic,,GSMZLBOYBDRGBN-UHFFFAOYSA-N,,,,Identification(41); Physical Data(32); Spectra(46),49.0,122.0,-77,,,,,,Article; Grosse; Wackher; Linn; Journal of Physical Chemistry; vol. 44; (1940); p. 293;,https://www.reaxys.com/reaxys/secured/hopinto.do?context=C&query=CNR.CNR%3D1231103&database=RX&origin=ReaxysOutput&ln=
,CCC(C)F,1730879.0,https://www.reaxys.com/reaxys/secured/hopinto.do?context=S&query=IDE.XRN%3D1730879&database=RX&origin=ReaxysOutput&ln=,(834 of 4000),359-01-3,2-fluorobutane; 2-Fluor-butan; sec-Butylfluorid; sek.-Butylfluorid,C4H9F,C4H9F,76.1139,acyclic,,IXHWZHXLJJPXIS-UHFFFAOYSA-N,,,,Identification(34); Physical Data(21); Spectra(24),40.0,59.0,-121.4,,,erstarrt bei tiefen Temperaturen zu Nadeln oder Prismen.,,,Article; Grosse; Wackher; Linn; Journal of Physical Chemistry; vol. 44; (1940); p. 293;,https://www.reaxys.com/reaxys/secured/hopinto.do?context=C&query=CNR.CNR%3D1231103&database=RX&origin=ReaxysOutput&ln=
,CC(O)=S,1733298.0,https://www.reaxys.com/reaxys/secured/hopinto.do?context=S&query=IDE.XRN%3D1733298&database=RX&origin=ReaxysOutput&ln=,(835 of 4000),507-09-5,thioacetic acid,CH3CSOH,C2H4OS,76.1192,acyclic,,DUYAAUVXQSMXQP-UHFFFAOYSA-N,,,,Identification(21); Physical Data(48); Spectra(26); Bioactivity(20),712.0,376.0,-75,,,,,,Article; Crouch; Journal of the American Chemical Society; vol. 74; (1952); p. 2926;,https://www.reaxys.com/reaxys/secured/hopinto.do?context=C&query=CNR.CNR%3D1148008&database=RX&origin=ReaxysOutput&ln=
,NC(N)=S,605327.0,https://www.reaxys.com/reaxys/secured/hopinto.do?context=S&query=IDE.XRN%3D605327&database=RX&origin=ReaxysOutput&ln=,(836 of 4000),17356-08-0,thiourea; Thiocarbamide,NH2SCNH2,CH4N2S,76.1222,acyclic,,UMGDCJDMYOKAJW-UHFFFAOYSA-N,,,,Identification(14403); Physical Data(697); Spectra(195); Bioactivity(1763),22276.0,26946.0,182,,,,,,"Article; Adeyemi, Adedoyin N.; Cox, Tori; Earnest, Rae Ann; Lebedev, Oleg I.; Zaikina, Julia V.; Molecules; vol. 27; 6; (2022);",https://www.reaxys.com/reaxys/secured/hopinto.do?context=C&query=CNR.CNR%3D116035264&database=RX&origin=ReaxysOutput&ln=
,NC(S)=N,878159.0,https://www.reaxys.com/reaxys/secured/hopinto.do?context=S&query=IDE.XRN%3D878159&database=RX&origin=ReaxysOutput&ln=,(837 of 4000),62-56-6,thiourea; carbamimidothioic acid; Thioharnstoff; isothiourea,CH4N2S,CH4N2S,76.1222,acyclic,,UMGDCJDMYOKAJW-UHFFFAOYSA-N,,,,Identification(170); Physical Data(1); Spectra(3); Bioactivity(19),80.0,290.0,177 - 180,,,,,,Article; Lin et al.; Journal of the Chinese Chemical Society; vol. 24; (1977); p. 65;,https://www.reaxys.com/reaxys/secured/hopinto.do?context=C&query=CNR.CNR%3D2711129&database=RX&origin=ReaxysOutput&ln=
,SC#N.[H]N([H])[H],3595135.0,https://www.reaxys.com/reaxys/secured/hopinto.do?context=S&query=IDE.XRN%3D3595135&database=RX&origin=ReaxysOutput&ln=,(838 of 4000),1147550-11-5,ammonium thiocyanate; ammonium rhodanide; ammonium isothiocyanate; NH4SCN; ammonium sulfocyanide; ammonium thiocynate,H3N*CHNS,CHNS*H3N,76.1222,acyclic,,SOIFLUNRINLCBN-UHFFFAOYSA-N,,,,Identification(56); Physical Data(255); Spectra(28); Bioactivity(145),6637.0,2723.0,149.5,,,,,,"Article; Sekera; Pokorny; Mikrochimica acta; (1954); p. 366,368;; ; Article; Wassiljew; Zhurnal Russkago Fiziko-Khimicheskago Obshchestva; vol. 42; p. 424; Chemisches Zentralblatt; vol. 81; II; (1910); p. 56;",https://www.reaxys.com/reaxys/secured/hopinto.do?context=C&query=CNR.CNR%3D646430&database=RX&origin=ReaxysOutput&ln=
,[NH4+].[S-]C#N,10773874.0,https://www.reaxys.com/reaxys/secured/hopinto.do?context=S&query=IDE.XRN%3D10773874&database=RX&origin=ReaxysOutput&ln=,(839 of 4000),,ammonium thiocyanate; ammonium isothiocyanate,NH4(1+)*NCS(1-)=NH4(NCS),CNS*H4N,76.1222,,,SOIFLUNRINLCBN-UHFFFAOYSA-N,,,,Identification(1926); Physical Data(418); Spectra(34); Bioactivity(199),2968.0,3922.0,153,,,,,,"Article; Belieres, Jean-Philippe; Gervasio, Don; Angell, C. Austen; Chemical Communications; 46; (2006); p. 4799 - 4801;; ; Article; Kharitonov, Yu. Ya.; Ismail, M. A.; Sarukhanov, M. A.; Russian Journal of Inorganic Chemistry; vol. 33; (1988); p. 1117 - 1121; Russ. J. Inorg. Chem. (Transl. of Zh. Neorg. Khim.); vol. 33; (1988); p. 1961 - 1966;; ; Article; Belevskii; Kharitonov; Sarukhanov; Ismail; Russian Journal of Inorganic Chemistry; vol. 42; 8; (1997); p. 1140 - 1145; (from Gmelin)",https://www.reaxys.com/reaxys/secured/hopinto.do?context=C&query=CNR.CNR%3D6611512&database=RX&origin=ReaxysOutput&ln=
,C[13C](N)=S,1848833.0,https://www.reaxys.com/reaxys/secured/hopinto.do?context=S&query=IDE.XRN%3D1848833&database=RX&origin=ReaxysOutput&ln=,(840 of 4000),13385-97-2,(1-13C)-Thioacetamid; [1-13C]thioacetamide,C(13)CH5NS,C2H5NS,76.1234,acyclic,,YUKQRDCYNOVPGJ-VQEHIDDOSA-N,,,,Identification(5); Physical Data(1); Spectra(1),1.0,1.0,110 - 111.5,benzene; ethanol,,,,,"Article; Walter; Kubersky; Justus Liebigs Annalen der Chemie; vol. 694; (1966); p. 56,67;",https://www.reaxys.com/reaxys/secured/hopinto.do?context=C&query=CNR.CNR%3D3868405&database=RX&origin=ReaxysOutput&ln=
,[13CH3]C(N)=S,1848834.0,https://www.reaxys.com/reaxys/secured/hopinto.do?context=S&query=IDE.XRN%3D1848834&database=RX&origin=ReaxysOutput&ln=,(841 of 4000),13385-96-1,(2-13C)-Thioacetamid; [2-13C]thioacetamide,C(13)CH5NS,C2H5NS,76.1234,acyclic,,YUKQRDCYNOVPGJ-OUBTZVSYSA-N,,,,Identification(5); Physical Data(1); Spectra(1),1.0,1.0,111 - 112.5,benzene; ethanol,,,,,"Article; Walter; Kubersky; Justus Liebigs Annalen der Chemie; vol. 694; (1966); p. 56,67;",https://www.reaxys.com/reaxys/secured/hopinto.do?context=C&query=CNR.CNR%3D3868405&database=RX&origin=ReaxysOutput&ln=
,CC([15NH2])=S,1848844.0,https://www.reaxys.com/reaxys/secured/hopinto.do?context=S&query=IDE.XRN%3D1848844&database=RX&origin=ReaxysOutput&ln=,(842 of 4000),13385-98-3,(15N)Thioacetamid,C2H5(15)NS,C2H5NS,76.1277,acyclic,,YUKQRDCYNOVPGJ-LBPDFUHNSA-N,,,,Identification(10); Physical Data(6); Spectra(4),3.0,9.0,111 - 112,benzene; ethanol,,,,,"Article; Walter; Kubersky; Justus Liebigs Annalen der Chemie; vol. 694; (1966); p. 56,67;",https://www.reaxys.com/reaxys/secured/hopinto.do?context=C&query=CNR.CNR%3D3868405&database=RX&origin=ReaxysOutput&ln=
,S=C=S,1098293.0,https://www.reaxys.com/reaxys/secured/hopinto.do?context=S&query=IDE.XRN%3D1098293&database=RX&origin=ReaxysOutput&ln=,(843 of 4000),75-15-0,carbon disulfide; Carbon disulphide,SCS,CS2,76.143,acyclic,,QGJOPFRUJISHPQ-UHFFFAOYSA-N,,,,Identification(1471); Physical Data(1956); Spectra(284); Bioactivity(1022),36797.0,20179.0,-108.16,,,,,,Article; Keyes; Journal of Chemical Physics; vol. 104; 23; (1996); p. 9349 - 9356; (from Gmelin),https://www.reaxys.com/reaxys/secured/hopinto.do?context=C&query=CNR.CNR%3D6040791&database=RX&origin=ReaxysOutput&ln=
,CC(C)S,605260.0,https://www.reaxys.com/reaxys/secured/hopinto.do?context=S&query=IDE.XRN%3D605260&database=RX&origin=ReaxysOutput&ln=,(844 of 4000),75-33-2,2-propanethiol; 2-propanthiol,(CH3)2HCSH,C3H8S,76.1625,acyclic,,KJRCEJOSASVSRA-UHFFFAOYSA-N,,,,Identification(390); Physical Data(166); Spectra(50); Bioactivity(96),1963.0,1914.0,128 - 129,,,,,,Article; Takiguchi et al.; Nippon Kagaku Kaishi/Journal of the Chemical Society of Japan; (1973); p. 1066;,https://www.reaxys.com/reaxys/secured/hopinto.do?context=C&query=CNR.CNR%3D5156290&database=RX&origin=ReaxysOutput&ln=
,CCCS,1696860.0,https://www.reaxys.com/reaxys/secured/hopinto.do?context=S&query=IDE.XRN%3D1696860&database=RX&origin=ReaxysOutput&ln=,(845 of 4000),107-03-9,1-thiopropane; 1-propanethiol; n-propanethiol; propanethiol,HS(CH2)2CH3,C3H8S,76.1625,acyclic,,SUVIGLJNEAMWEG-UHFFFAOYSA-N,,,,Identification(916); Physical Data(263); Spectra(61); Bioactivity(163),2669.0,2742.0,,,,,,,"Article; Morris et al.; Journal of Chemical and Engineering Data; vol. 5; (1960); p. 112,113;",https://www.reaxys.com/reaxys/secured/hopinto.do?context=C&query=CNR.CNR%3D3797609&database=RX&origin=ReaxysOutput&ln=
,CCSC,1696871.0,https://www.reaxys.com/reaxys/secured/hopinto.do?context=S&query=IDE.XRN%3D1696871&database=RX&origin=ReaxysOutput&ln=,(846 of 4000),624-89-5,Ethyl methyl sulfide; sulfure d'ethyle et de methyle,S(C2H5)CH3,C3H8S,76.1625,acyclic,,WXEHBUMAEPOYKP-UHFFFAOYSA-N,,,,Identification(308); Physical Data(127); Spectra(60); Bioactivity(32),155.0,568.0,-105.91,,,,,,"Article; Haines et al.; Journal of Physical Chemistry; vol. 58; (1954); p. 270,274;; ; Article; McAllan et al.; Journal of the American Chemical Society; vol. 73; (1951); p. 3627,3629;",https://www.reaxys.com/reaxys/secured/hopinto.do?context=C&query=CNR.CNR%3D602171&database=RX&origin=ReaxysOutput&ln=
,COC[SiH3],1918082.0,https://www.reaxys.com/reaxys/secured/hopinto.do?context=S&query=IDE.XRN%3D1918082&database=RX&origin=ReaxysOutput&ln=,(847 of 4000),5624-64-6,(methoxymethyl)silane,C2H8SiO,C2H8OSi,76.1704,acyclic,,WQEWAQFTKKOSJK-UHFFFAOYSA-N,,,,Identification(7); Physical Data(7); Spectra(9),4.0,5.0,-123,,,,,,Article; Varma; Inorganic and Nuclear Chemistry Letters; vol. 6; (1970); p. 9;,https://www.reaxys.com/reaxys/secured/hopinto.do?context=C&query=CNR.CNR%3D4065490&database=RX&origin=ReaxysOutput&ln=
,[SiH3]C[SiH3],1811604.0,https://www.reaxys.com/reaxys/secured/hopinto.do?context=S&query=IDE.XRN%3D1811604&database=RX&origin=ReaxysOutput&ln=,(848 of 4000),1759-88-2,disilylmethane; Disilylmethan; bissilylmethane,H3SiCH2SiH3,CH8Si2,76.2455,acyclic,,HVXTXDKAKJVHLF-UHFFFAOYSA-N,,,,Identification(21); Physical Data(22); Spectra(28),18.0,36.0,-134,,,,,,"Article; Morrison,J.A.; Bellama,J.M.; Journal of Organometallic Chemistry; vol. 92; (1975); p. 163 - 168;",https://www.reaxys.com/reaxys/secured/hopinto.do?context=C&query=CNR.CNR%3D285877&database=RX&origin=ReaxysOutput&ln=
,C[SiH2][SiH3],1918066.0,https://www.reaxys.com/reaxys/secured/hopinto.do?context=S&query=IDE.XRN%3D1918066&database=RX&origin=ReaxysOutput&ln=,(849 of 4000),13498-43-6,methyldisilane,CH8Si2,CH8Si2,76.2455,acyclic,,IQCYANORSDPPDT-UHFFFAOYSA-N,,,,Identification(6); Physical Data(3); Spectra(13),10.0,16.0,-134.9,,,,,,"Note; Abedini, Mansour; Macdiarmid, Alan G.; Inorganic Chemistry; vol. 5; 11; (1966); p. 2040 - 2042;",https://www.reaxys.com/reaxys/secured/hopinto.do?context=C&query=CNR.CNR%3D4250699&database=RX&origin=ReaxysOutput&ln=
,ClCC=C,635704.0,https://www.reaxys.com/reaxys/secured/hopinto.do?context=S&query=IDE.XRN%3D635704&database=RX&origin=ReaxysOutput&ln=,(850 of 4000),107-05-1,3-chloroprop-1-ene; Allylchloride,(CH2)CH(CH2Cl),C3H5Cl,76.5257,acyclic,,OSDWBNJEKMUWAV-UHFFFAOYSA-N,,,,Identification(1089); Physical Data(255); Spectra(89); Bioactivity(269),5532.0,5073.0,-134.5,,,,,,"Article; Timmermans; Hennaut-Roland; Journal de Chimie Physique et de Physico-Chimie Biologique; vol. 29; (1932); p. 536;; ; Article; Timmermans; Bulletin des Societes Chimiques Belges; vol. 61; (1952); p. 393,396;",https://www.reaxys.com/reaxys/secured/hopinto.do?context=C&query=CNR.CNR%3D1329653&database=RX&origin=ReaxysOutput&ln=
,C\C=C\Cl,1209239.0,https://www.reaxys.com/reaxys/secured/hopinto.do?context=S&query=IDE.XRN%3D1209239&database=RX&origin=ReaxysOutput&ln=,(851 of 4000),16136-85-9,trans-1-Chloropropen,CH3CHCHCl,C3H5Cl,76.5257,acyclic,,OWXJKYNZGFSVRC-NSCUHMNNSA-N,,,,Identification(42); Physical Data(46); Spectra(18); Bioactivity(5),56.0,99.0,-99,,,,,,Article; Timmermans; Bulletin des Societes Chimiques Belges; vol. 36; (1927); p. 503; Chemisches Zentralblatt; vol. 99; I; (1928); p. 26;,https://www.reaxys.com/reaxys/secured/hopinto.do?context=C&query=CNR.CNR%3D1314298&database=RX&origin=ReaxysOutput&ln=
,CC(Cl)=C,1361376.0,https://www.reaxys.com/reaxys/secured/hopinto.do?context=S&query=IDE.XRN%3D1361376&database=RX&origin=ReaxysOutput&ln=,(852 of 4000),557-98-2,2-chloropropene; 2-chloroprop-1-ene; 2-chloro-1-propene,CH3C(Cl)CH2,C3H5Cl,76.5257,acyclic,,PNLQPWWBHXMFCA-UHFFFAOYSA-N,,,,Identification(62); Physical Data(60); Spectra(28); Bioactivity(16),230.0,302.0,-138.6,,,,,,Article; Timmermans; Bulletin des Societes Chimiques Belges; vol. 36; (1927); p. 503; Chemisches Zentralblatt; vol. 99; I; (1928); p. 26;,https://www.reaxys.com/reaxys/secured/hopinto.do?context=C&query=CNR.CNR%3D1314298&database=RX&origin=ReaxysOutput&ln=
,C\C=C/Cl,1719095.0,https://www.reaxys.com/reaxys/secured/hopinto.do?context=S&query=IDE.XRN%3D1719095&database=RX&origin=ReaxysOutput&ln=,(853 of 4000),16136-84-8,cis-1-chloropropene; (Z)-1-chloroprop-1-ene,ClCHCHCH3,C3H5Cl,76.5257,acyclic,,OWXJKYNZGFSVRC-IHWYPQMZSA-N,,,,Identification(80); Physical Data(50); Spectra(18),50.0,147.0,-134.8,,,,,,Article; Timmermans; Bulletin des Societes Chimiques Belges; vol. 36; (1927); p. 503; Chemisches Zentralblatt; vol. 99; I; (1928); p. 26;,https://www.reaxys.com/reaxys/secured/hopinto.do?context=C&query=CNR.CNR%3D1314298&database=RX&origin=ReaxysOutput&ln=
,ClC1CC1,1900286.0,https://www.reaxys.com/reaxys/secured/hopinto.do?context=S&query=IDE.XRN%3D1900286&database=RX&origin=ReaxysOutput&ln=,(854 of 4000),7393-45-5,cyclopropyl chloride; Chlorcyclopropan; chlorocyclopropane,C3H5Cl,C3H5Cl,76.5257,isocyclic,,VEZNCHDBSQWUHQ-UHFFFAOYSA-N,,,,Identification(37); Physical Data(25); Spectra(21),41.0,75.0,-97.68,,,,,,Article; Slabey; Journal of the American Chemical Society; vol. 74; (1952); p. 4930;,https://www.reaxys.com/reaxys/secured/hopinto.do?context=C&query=CNR.CNR%3D1605670&database=RX&origin=ReaxysOutput&ln=
,[Na+].[H][N-][H].[H][B-]([H])([H])[H],16501121.0,https://www.reaxys.com/reaxys/secured/hopinto.do?context=S&query=IDE.XRN%3D16501121&database=RX&origin=ReaxysOutput&ln=,(856 of 4000),,,2Na(1+)*BH4(1-)*NH2(1-)=Na2[BNH6],BH4*H2N*2Na,76.8449,Coordination compound,,FYGSMYLVFGINQP-UHFFFAOYSA-N,,,,Identification(5); Physical Data(5); Spectra(1),3.0,3.0,215,,,,,,"Article; Chater, Philip A.; Anderson, Paul A.; Prendergast, James W.; Walton, Allan; Mann, Vicky S.J.; Book, David; David, William I.F.; Johnson, Simon R.; Edwards, Peter P.; Journal of Alloys and Compounds; vol. 446-447; (2007); p. 350 - 354; (from Gmelin)",https://www.reaxys.com/reaxys/secured/hopinto.do?context=C&query=CNR.CNR%3D8598691&database=RX&origin=ReaxysOutput&ln=
,[H]N([H])[H].CB(C)F,3665246.0,https://www.reaxys.com/reaxys/secured/hopinto.do?context=S&query=IDE.XRN%3D3665246&database=RX&origin=ReaxysOutput&ln=,(859 of 4000),,fluoro-dimethyl-borane; compound with ammonia; Fluor-dimethyl-boran; Verbindung mit Ammoniak,C2H6BF*H3N,C2H6BF*H3N,76.9096,acyclic,,UHOLPQPJNLZABF-UHFFFAOYSA-N,,,,Identification(5); Physical Data(1),,1.0,51,,,,,,Article; Wiberg; Horeld; Zeitschrift fur Naturforschung; vol. 6b; (1951); p. 338;,https://www.reaxys.com/reaxys/secured/hopinto.do?context=C&query=CNR.CNR%3D1254579&database=RX&origin=ReaxysOutput&ln=
,NC(P)=O,26608623.0,https://www.reaxys.com/reaxys/secured/hopinto.do?context=S&query=IDE.XRN%3D26608623&database=RX&origin=ReaxysOutput&ln=,(860 of 4000),,phosphinecarboxamide; phosphanecarboxamide,CH4NOP,CH4NOP,77.0226,,,QHUZHCCUWPRJEU-UHFFFAOYSA-N,,,,Identification(13); Physical Data(4); Spectra(3),2.0,12.0,64,,supporting information,,,,Article; Geeson; Jupp; McGrady; Goicoechea; Chemical Communications; vol. 50; 82; (2014); p. 12281 - 12284;,https://www.reaxys.com/reaxys/secured/hopinto.do?context=C&query=CNR.CNR%3D64671382&database=RX&origin=ReaxysOutput&ln=
,CON(=O)=O,1699872.0,https://www.reaxys.com/reaxys/secured/hopinto.do?context=S&query=IDE.XRN%3D1699872&database=RX&origin=ReaxysOutput&ln=,(861 of 4000),598-58-3,methyl nitrate,CH3NO3,CH3NO3,77.0397,acyclic,,LRMHVVPPGGOAJQ-UHFFFAOYSA-N,,,,Identification(217); Physical Data(95); Spectra(53),117.0,417.0,-83,,supporting information,,,,"Article; Reichel, Marco; Krumm, Burkhard; Vishnevskiy, Yury V.; Blomeyer, Sebastian; Schwabedissen, Jan; Stammler, Hans-Georg; Karaghiosoff, Konstantin; Mitzel, Norbert W.; Angewandte Chemie - International Edition; vol. 58; 51; (2019); p. 18557 - 18561; Angew. Chem.; vol. 131; 51; (2019); p. 18730 - 18734,5;",https://www.reaxys.com/reaxys/secured/hopinto.do?context=C&query=CNR.CNR%3D78331463&database=RX&origin=ReaxysOutput&ln=
,NC(=O)[15NH]O,2238574.0,https://www.reaxys.com/reaxys/secured/hopinto.do?context=S&query=IDE.XRN%3D2238574&database=RX&origin=ReaxysOutput&ln=,(862 of 4000),,15N-hydroxyurea; 15N-Hydroxy-harnstoff,CH4N(15)NO2,CH4N2O2,77.0483,acyclic,,VSNHCAURESNICA-LBPDFUHNSA-N,,,,Identification(7); Physical Data(1); Spectra(5),2.0,2.0,140,,,,,,"Article; Ohme,R.; Preuschhof,H.; Journal fur praktische Chemie (Leipzig 1954); vol. 312; (1970); p. 349 - 358;",https://www.reaxys.com/reaxys/secured/hopinto.do?context=C&query=CNR.CNR%3D288869&database=RX&origin=ReaxysOutput&ln=
,[F-].F[H].[H][N+]([H])([H])[H],16801294.0,https://www.reaxys.com/reaxys/secured/hopinto.do?context=S&query=IDE.XRN%3D16801294&database=RX&origin=ReaxysOutput&ln=,(863 of 4000),,,F(1-)*2HF*NH4(1+)=NH3(HF)3,2FH*F*H4N,77.0495,Coordination compound,,KVBCYCWRDBDGBG-UHFFFAOYSA-N,,,,Identification(5); Physical Data(3),5.0,12.0,121 - 127,,,,,,"Article; Ruff, O.; Staub, L.; Zeitschrift fur anorganische Chemie; vol. 212; (1933); p. 399 - 400;; ; Article; Gmelin Handbuch der Anorganischen Chemie; vol. F: SVol.1; 66, page 236 - 238; (from Gmelin)",https://www.reaxys.com/reaxys/secured/hopinto.do?context=C&query=CNR.CNR%3D7257230&database=RX&origin=ReaxysOutput&ln=