Structure: Image,SMILES,Substance Identification: Reaxys Registry Number,Links to Reaxys,Data Count,CAS Registry Number,Chemical Name,Linear Structure Formula,Molecular Formula,Molecular Weight,Type of Substance,Type and Modification,InChI Key,Composition: Comp. Name,Composition: Comp. Conc.,Composition: Comp. Attrib.,Field Availability,Number of Reactions,Number of References,Melting Point: Melting Point [C],Solvent (Melting Point),Location,Comment (Melting Point),Crystallizes With,Amount (Melting Point) [mol],References,Links to Reaxys.1
,ClNC=N,1736885.0,https://www.reaxys.com/reaxys/secured/hopinto.do?context=S&query=IDE.XRN%3D1736885&database=RX&origin=ReaxysOutput&ln=,(933 of 4000),115948-81-7,N-chloro-formamidine; N-Chlor-formamidin; N-chloroamidine,CH3ClN2,CH3ClN2,78.5012,acyclic,,DLXXDCOYQINPKG-UHFFFAOYSA-N,,,,Identification(9); Physical Data(1),5.0,7.0,-17,,,,,,"Article; Goerdeler; Wember; Chemische Berichte; vol. 86; (1953); p. 400,403;",https://www.reaxys.com/reaxys/secured/hopinto.do?context=C&query=CNR.CNR%3D820516&database=RX&origin=ReaxysOutput&ln=
,CCCCl,1730771.0,https://www.reaxys.com/reaxys/secured/hopinto.do?context=S&query=IDE.XRN%3D1730771&database=RX&origin=ReaxysOutput&ln=,(934 of 4000),540-54-5,1-Chloropropane; propyl Chloride,ClC3H7,C3H7Cl,78.5416,acyclic,,SNMVRZFUUCLYTO-UHFFFAOYSA-N,,,,Identification(301); Physical Data(647); Spectra(91); Bioactivity(83),684.0,1346.0,,,,,,,"Article; Martin; Journal de Chimie Physique et de Physico-Chimie Biologique; vol. 64; (1967); p. 347,349,351,356;",https://www.reaxys.com/reaxys/secured/hopinto.do?context=C&query=CNR.CNR%3D3765817&database=RX&origin=ReaxysOutput&ln=
,CC(C)Cl,1730782.0,https://www.reaxys.com/reaxys/secured/hopinto.do?context=S&query=IDE.XRN%3D1730782&database=RX&origin=ReaxysOutput&ln=,(935 of 4000),75-29-6,2-chloropropane; isopropyl chloride,CH3CHClCH3,C3H7Cl,78.5416,acyclic,,ULYZAYCEDJDHCC-UHFFFAOYSA-N,,,,Identification(265); Physical Data(299); Spectra(73); Bioactivity(82),974.0,1399.0,-117,,,,,,Article; Timmermans; Martin; Journal de Chimie Physique et de Physico-Chimie Biologique; vol. 25; (1928); p. 412;; ; Article; Timmermans; Chemisches Zentralblatt; vol. 85; I; (1914); p. 618;,https://www.reaxys.com/reaxys/secured/hopinto.do?context=C&query=CNR.CNR%3D1314029&database=RX&origin=ReaxysOutput&ln=
,[H]B1NC=CC=C1,15902719.0,https://www.reaxys.com/reaxys/secured/hopinto.do?context=S&query=IDE.XRN%3D15902719&database=RX&origin=ReaxysOutput&ln=,(937 of 4000),6680-69-9,"1,2-dihydro-1,2-azaborine; 1,2-dihydro-1,2-azaborinine",C4H4B(H)N(H),C4H6BN,78.9093,,,OGZZEGWWYQKMSO-UHFFFAOYSA-N,,,,Identification(36); Physical Data(10); Spectra(30),28.0,46.0,-45,,Page/Page column 3,,,,Patent; OREGON HEALTH &amp; SCIENCE UNIVERSITY; US2011/21818; (2011); A1;,https://www.reaxys.com/reaxys/secured/hopinto.do?context=C&query=CNR.CNR%3D8973248&database=RX&origin=ReaxysOutput&ln=
,OP(O)#N,16839199.0,https://www.reaxys.com/reaxys/secured/hopinto.do?context=S&query=IDE.XRN%3D16839199&database=RX&origin=ReaxysOutput&ln=,(946 of 4000),861015-03-4,PNO2H2,H2(PNO2),H2NO2P,78.9951,,,ZSTLPJLUQNQBDQ-UHFFFAOYSA-N,,,,Identification(6); Physical Data(7),2.0,7.0,195,,,,,,"Article; Renaud, P.; Annales de Chimie (Cachan, France); vol. 3; (1935); p. 443 - 512;; ; Article; Renaud, P.; Comptes Rendus Hebdomadaires des Seances de l'Academie des Sciences; vol. 198; (1934); p. 1159 - 1161;; ; Article; Gmelin Handbuch der Anorganischen Chemie; vol. P: MVol.C; 146, page 336 - 338; (from Gmelin)",https://www.reaxys.com/reaxys/secured/hopinto.do?context=C&query=CNR.CNR%3D7447941&database=RX&origin=ReaxysOutput&ln=
,[2H]C([2H])([2H])C(=NO)C([2H])([2H])[2H],1906387.0,https://www.reaxys.com/reaxys/secured/hopinto.do?context=S&query=IDE.XRN%3D1906387&database=RX&origin=ReaxysOutput&ln=,(947 of 4000),41966-81-8,Acetonoxim-d(6),C3HD6NO,C3H7NO,79.047,acyclic,,PXAJQJMDEXJWFB-WFGJKAKNSA-N,,,,Identification(5); Physical Data(4); Spectra(6),6.0,8.0,58.5 - 60,,,,,,"Article; Grela, Karol; Konopski, Leszek; Tetrahedron; vol. 66; 20; (2010); p. 3614 - 3622;",https://www.reaxys.com/reaxys/secured/hopinto.do?context=C&query=CNR.CNR%3D8881230&database=RX&origin=ReaxysOutput&ln=
,OC=O.[H]N([H])O,3702759.0,https://www.reaxys.com/reaxys/secured/hopinto.do?context=S&query=IDE.XRN%3D3702759&database=RX&origin=ReaxysOutput&ln=,(948 of 4000),18320-06-4,hydroxy ammonium formiate; formic acid ; hydroxyammonium formate; Ameisensaeure; Hydroxyammonium-formiat,NH3OH(1+)*HCO2(1-)=NH3OHHCO2,CHO2*H4NO,79.0556,acyclic,,QJMMOFKVXUHETR-UHFFFAOYSA-N,,,,Identification(5); Physical Data(6),4.0,6.0,76,,,,,,"Article; Jones, L. W.; Oesper, R.; American Chemical Journal; vol. 42; (1909); p. 517;; ; Article; Gmelin Handbuch der Anorganischen Chemie; vol. NH4: MVol.2; 15, page 587 - 602; (from Gmelin)",https://www.reaxys.com/reaxys/secured/hopinto.do?context=C&query=CNR.CNR%3D7231101&database=RX&origin=ReaxysOutput&ln=
,NC(N)=[35S],1700376.0,https://www.reaxys.com/reaxys/secured/hopinto.do?context=S&query=IDE.XRN%3D1700376&database=RX&origin=ReaxysOutput&ln=,(950 of 4000),5022-67-3,<(35)S>-Thiourea; [35S]Thioharnstoff,CH4N2(35)S,CH4N2S,79.0562,acyclic,,UMGDCJDMYOKAJW-XSCORUHJSA-N,,,,Identification(6); Physical Data(3),7.0,9.0,172,,,,,,Article; Zolyomi; Journal of labelled compounds; vol. 10; 2; (1974); p. 361 - 364;,https://www.reaxys.com/reaxys/secured/hopinto.do?context=C&query=CNR.CNR%3D3985500&database=RX&origin=ReaxysOutput&ln=
,ON=O.[H]N([H])N([H])[H],16476758.0,https://www.reaxys.com/reaxys/secured/hopinto.do?context=S&query=IDE.XRN%3D16476758&database=RX&origin=ReaxysOutput&ln=,(951 of 4000),66375-21-1,hydrazine nitrite,N2H5(1+)*NO2(1-)=N2H5NO2,HNO2*H4N2,79.0586,,,GIMCVIVQMMVJFC-UHFFFAOYSA-N,,,,Identification(6); Physical Data(5),8.0,18.0,43,,,,,,"Article; Sommer, F.; Zeitschrift fur anorganische Chemie; vol. 83; (1913); p. 122;; ; Article; Gmelin Handbuch der Anorganischen Chemie; vol. NH4: MVol.2; 12, page 532 - 552; (from Gmelin)",https://www.reaxys.com/reaxys/secured/hopinto.do?context=C&query=CNR.CNR%3D7263415&database=RX&origin=ReaxysOutput&ln=
,[H+].[O-]\N=N\[O-].[H][N+]([H])([H])[H],16839116.0,https://www.reaxys.com/reaxys/secured/hopinto.do?context=S&query=IDE.XRN%3D16839116&database=RX&origin=ReaxysOutput&ln=,(952 of 4000),,,NH4(1+)*H(1+)*N2O2(2-)=NH4HN2O2,H*H4N*N2O2,79.0586,,,RDGOWQOJUHIHGM-UHFFFAOYSA-N,,,,Identification(5); Physical Data(2),2.0,4.0,64 - 65,,,with decomposition,,,"Article; Hantzsch, A.; Kaufmann, L.; Liebigs Annalen der Chemie; vol. 292; (1896); p. 328;; ; Article; Hantzsch, A.; Chemische Berichte; vol. 29; (1896); p. 1394;; ; Article; Piloty, O.; Chemische Berichte; vol. 29; (1896); p. 1567;; ; Article; Gmelin Handbuch der Anorganischen Chemie; vol. NH4: MVol.1; 2.6.1, page 80 - 85; (from Gmelin)",https://www.reaxys.com/reaxys/secured/hopinto.do?context=C&query=CNR.CNR%3D7322265&database=RX&origin=ReaxysOutput&ln=
,[3H]C([3H])([3H])C(=N)OC,2429117.0,https://www.reaxys.com/reaxys/secured/hopinto.do?context=S&query=IDE.XRN%3D2429117&database=RX&origin=ReaxysOutput&ln=,(953 of 4000),,Methyl<3H>acetamidat,C3H4T3NO,C3H7NO,79.0709,acyclic,,SJFKGZZCMREBQH-RLXJOQACSA-N,,,,Identification(5); Physical Data(1),1.0,1.0,93 - 95,,,,,,Article; Zull; Repke; Journal of Biological Chemistry; vol. 247; 7; (1972); p. 2183 - 2188;,https://www.reaxys.com/reaxys/secured/hopinto.do?context=C&query=CNR.CNR%3D4495481&database=RX&origin=ReaxysOutput&ln=
,F[H].NC(N)=N,3670032.0,https://www.reaxys.com/reaxys/secured/hopinto.do?context=S&query=IDE.XRN%3D3670032&database=RX&origin=ReaxysOutput&ln=,(954 of 4000),38078-70-5,guanidinium fluoride; guanidine hydrofluoride; Guanidin; Hydrofluorid; Guanidinium-fluorid,CN3H6(1+)*F(1-)=CN3H6F,CH6N3*F,79.0771,acyclic,,ZPQINZAVTLGLIW-UHFFFAOYSA-N,,,,Identification(9); Physical Data(5),7.0,13.0,198,,,Decomp.Sublimation >175grad.,,,"Article; Engelbrecht; Nachbaur; Monatshefte fur Chemie; vol. 90; (1959); p. 371,373;",https://www.reaxys.com/reaxys/secured/hopinto.do?context=C&query=CNR.CNR%3D1493613&database=RX&origin=ReaxysOutput&ln=
,C1=CC=NC=C1,103233.0,https://www.reaxys.com/reaxys/secured/hopinto.do?context=S&query=IDE.XRN%3D103233&database=RX&origin=ReaxysOutput&ln=,(955 of 4000),110-86-1,pyridine,(C5H5N),C5H5N,79.1014,heterocyclic,,JUJWROOIHBZHMG-UHFFFAOYSA-N,,,,Identification(7260); Physical Data(5145); Spectra(588); Bioactivity(1758),39681.0,31922.0,-42 - -40,,,,,,"Article; Messina, Maria T; Metrangolo, Pierangelo; Panzeri, Walter; Pilati, Tullio; Resnati, Giuseppe; Tetrahedron; vol. 57; 40; (2001); p. 8543 - 8550;",https://www.reaxys.com/reaxys/secured/hopinto.do?context=C&query=CNR.CNR%3D6306780&database=RX&origin=ReaxysOutput&ln=
,C=C\C=C/C#N,1719860.0,https://www.reaxys.com/reaxys/secured/hopinto.do?context=S&query=IDE.XRN%3D1719860&database=RX&origin=ReaxysOutput&ln=,(956 of 4000),2180-69-0,"(Z)-2,4-pentadienenitrile; (Z)-1-cyano-1,3-butadiene",C5H5N,C5H5N,79.1014,acyclic,,STSRVFAXSLNLLI-ARJAWSKDSA-N,,,,Identification(11); Physical Data(26); Spectra(15),41.0,29.0,-62.58,,,,,,Article; Wise; Journal of the American Chemical Society; vol. 76; (1954); p. 3094;,https://www.reaxys.com/reaxys/secured/hopinto.do?context=C&query=CNR.CNR%3D1190718&database=RX&origin=ReaxysOutput&ln=
,C=C\C=C\C#N,1719861.0,https://www.reaxys.com/reaxys/secured/hopinto.do?context=S&query=IDE.XRN%3D1719861&database=RX&origin=ReaxysOutput&ln=,(957 of 4000),2180-68-9,"(E)-penta-2,4-dienenitrile; (E)-1-cyano-1,3-butadiene",CH2(CH)3CN,C5H5N,79.1014,acyclic,,STSRVFAXSLNLLI-ONEGZZNKSA-N,,,,Identification(49); Physical Data(10); Spectra(17),43.0,72.0,-43,,,,,,Article; Snyder; Murdock; Marvel; Journal of the American Chemical Society; vol. 75; (1953); p. 4745;,https://www.reaxys.com/reaxys/secured/hopinto.do?context=C&query=CNR.CNR%3D1163002&database=RX&origin=ReaxysOutput&ln=
,[2H]C1=CC=CC=C1,1848659.0,https://www.reaxys.com/reaxys/secured/hopinto.do?context=S&query=IDE.XRN%3D1848659&database=RX&origin=ReaxysOutput&ln=,(958 of 4000),1120-89-4,benzene-d1; Benzol-d(1); Deuterio-benzol; Monodeuteriobenzol; benzene-d; Deuterobenzol; monodeuterobenzene; Monodenterobenzol; Monodeuterobenzol; d1-Benzol; Benzol-d; 1-Deuterio-benzol; D-Benzol,C6H5(2)H,C6H6,79.1057,isocyclic; Isotope or isotope containing compound,,UHOVQNZJYSORNB-MICDWDOJSA-N,,,,Identification(134); Physical Data(46); Spectra(75),86.0,289.0,5.5,,,,,,"Article; Angus et al.; Nature; vol. 135; (1935); p. 1033;; ; Article; Bryce-Smith et al.; Journal of the Chemical Society; (1954); p. 2743,2744;",https://www.reaxys.com/reaxys/secured/hopinto.do?context=C&query=CNR.CNR%3D1696172&database=RX&origin=ReaxysOutput&ln=
,CS(N)=O,1847281.0,https://www.reaxys.com/reaxys/secured/hopinto.do?context=S&query=IDE.XRN%3D1847281&database=RX&origin=ReaxysOutput&ln=,(959 of 4000),18649-16-6,methanesulfinamide; methanesulfonamide; Methansulfinamid; MeSONH2; methanesulfanamide,H3CSONH2,CH5NOS,79.1228,acyclic,,SZEHYTUQQCTUQK-UHFFFAOYSA-N,,,,Identification(7); Physical Data(2); Spectra(5),10.0,8.0,70 - 72,,,,,,Article; Ruostesuo; Finnish Chemical Letters; (1978); p. 166;,https://www.reaxys.com/reaxys/secured/hopinto.do?context=C&query=CNR.CNR%3D5103676&database=RX&origin=ReaxysOutput&ln=
,[H]S[H].CCN,3663486.0,https://www.reaxys.com/reaxys/secured/hopinto.do?context=S&query=IDE.XRN%3D3663486&database=RX&origin=ReaxysOutput&ln=,(960 of 4000),,ethylamine; hydrogensulfide; Aethylamin; Hydrogensulfid,C2H7N*H2S,C2H7N*H2S,79.1662,acyclic,,KRBGIQZIUPKUSB-UHFFFAOYSA-N,,,,Identification(5); Physical Data(2),1.0,1.0,55 - 57,,,im geschlossenen Roehrchen.,,,Article; Achterhof; Conaway; Boord; Journal of the American Chemical Society; vol. 53; (1931); p. 2687;,https://www.reaxys.com/reaxys/secured/hopinto.do?context=C&query=CNR.CNR%3D1233529&database=RX&origin=ReaxysOutput&ln=
,[H]S[H].CNC,4921665.0,https://www.reaxys.com/reaxys/secured/hopinto.do?context=S&query=IDE.XRN%3D4921665&database=RX&origin=ReaxysOutput&ln=,(961 of 4000),77159-29-6,dimethyl-amine; hydrogensulfide; Dimethyl-amin; Hydrogensulfid,C2H7N*H2S,C2H7N*H2S,79.1662,acyclic,,HXGAZKAMDLMTER-UHFFFAOYSA-N,,,,Identification(5); Physical Data(1),,1.0,34 - 40,,,,,,Article; Achterhof; Conaway; Boord; Journal of the American Chemical Society; vol. 53; (1931); p. 2687;,https://www.reaxys.com/reaxys/secured/hopinto.do?context=C&query=CNR.CNR%3D1233529&database=RX&origin=ReaxysOutput&ln=
,CN.[H]B([H])Cl,6697770.0,https://www.reaxys.com/reaxys/secured/hopinto.do?context=S&query=IDE.XRN%3D6697770&database=RX&origin=ReaxysOutput&ln=,(963 of 4000),,,(CH3)H2N*BH2Cl,BClH2*CH5N,79.3373,acyclic,,UANXOHFVSNKBQK-UHFFFAOYSA-N,,,,Identification(7); Physical Data(7); Spectra(3),5.0,8.0,47,,,,,,"Article; Hessett,B. et al.; Journal of the Chemical Society, Dalton Transactions; (1972); p. 131 - 134;",https://www.reaxys.com/reaxys/secured/hopinto.do?context=C&query=CNR.CNR%3D304143&database=RX&origin=ReaxysOutput&ln=
,NC(Cl)=O,1734893.0,https://www.reaxys.com/reaxys/secured/hopinto.do?context=S&query=IDE.XRN%3D1734893&database=RX&origin=ReaxysOutput&ln=,(964 of 4000),463-72-9,carbamic chloride,H2NCOCl,CH2ClNO,79.486,acyclic,,CKDWPUIZGOQOOM-UHFFFAOYSA-N,,,,Identification(107); Physical Data(28); Spectra(24),314.0,291.0,50,,,,,,Article; Gattermann; Justus Liebigs Annalen der Chemie; vol. 244; (1888); p. 30;,https://www.reaxys.com/reaxys/secured/hopinto.do?context=C&query=CNR.CNR%3D1450524&database=RX&origin=ReaxysOutput&ln=
,ClCN=O,1736739.0,https://www.reaxys.com/reaxys/secured/hopinto.do?context=S&query=IDE.XRN%3D1736739&database=RX&origin=ReaxysOutput&ln=,(965 of 4000),87142-15-2,chloro-nitroso-methane; Chlor-nitroso-methan,CH2ClNO,CH2ClNO,79.486,acyclic,,FKHXBNNQXVZHDE-UHFFFAOYSA-N,,,,Identification(7); Physical Data(1),3.0,3.0,62,,,Decomp.at:65 degreeC. - :66 degreeC.,,,Article; Rheinboldt; Dewald; Justus Liebigs Annalen der Chemie; vol. 451; (1927); p. 275;,https://www.reaxys.com/reaxys/secured/hopinto.do?context=C&query=CNR.CNR%3D1312773&database=RX&origin=ReaxysOutput&ln=
,ClN(=C)=O,1811647.0,https://www.reaxys.com/reaxys/secured/hopinto.do?context=S&query=IDE.XRN%3D1811647&database=RX&origin=ReaxysOutput&ln=,(966 of 4000),76794-26-8,chloro-methylen-amine oxide; N-Chlor-nitron; Chlor-methylen-aminoxid,CH2ClNO,CH2ClNO,79.486,acyclic,,MGLYJJBXXDZZIM-UHFFFAOYSA-N,,,,Identification(5); Physical Data(2),2.0,1.0,-43,,,,,,"Article; Okon; Aluchna; Bulletin de l'Academie Polonaise des Sciences, Serie des Sciences Chimiques; vol. 7; (1959); p. 83;",https://www.reaxys.com/reaxys/secured/hopinto.do?context=C&query=CNR.CNR%3D1391424&database=RX&origin=ReaxysOutput&ln=
,ClNC=O,2424471.0,https://www.reaxys.com/reaxys/secured/hopinto.do?context=S&query=IDE.XRN%3D2424471&database=RX&origin=ReaxysOutput&ln=,(967 of 4000),52175-99-2,N-chloroformamide,CH2ClNO,CH2ClNO,79.486,acyclic,,NFFSTVSAHCVTMU-UHFFFAOYSA-N,,,,Identification(15); Physical Data(1); Spectra(2),12.0,13.0,51 - 55,,,Decomposition,,,"Article; Goosen, Andre; McCleland, Cedric W.; Merrifield, Alan J.; Journal of the Chemical Society. Perkin transactions I; 5; (1992); p. 627 - 632;",https://www.reaxys.com/reaxys/secured/hopinto.do?context=C&query=CNR.CNR%3D5653215&database=RX&origin=ReaxysOutput&ln=
,ClC=[NH]=O,13264803.0,https://www.reaxys.com/reaxys/secured/hopinto.do?context=S&query=IDE.XRN%3D13264803&database=RX&origin=ReaxysOutput&ln=,(968 of 4000),,α-chloronitrone,CH2ClNO,CH2ClNO,79.486,,,CUXOTXGKRAHPBD-UHFFFAOYSA-N,,,,Identification(6); Physical Data(1),1.0,2.0,157,,,,,,Patent; Novartis (w/o Sandoz); NOVARTIS AG; US3950327; (1976); A;,https://www.reaxys.com/reaxys/secured/hopinto.do?context=C&query=CNR.CNR%3D7087122&database=RX&origin=ReaxysOutput&ln=
,[Cl].C1CO1,4921803.0,https://www.reaxys.com/reaxys/secured/hopinto.do?context=S&query=IDE.XRN%3D4921803&database=RX&origin=ReaxysOutput&ln=,(969 of 4000),,oxirane; compounds with chlorine (1:1); Oxiran; Verbindungen mit Chlor (1:1),C2H4O*Cl,C2H4O*Cl,79.5062,heterocyclic,,MUNXLICDRZSOSM-UHFFFAOYSA-N,,,,Identification(5); Physical Data(2),,1.0,-79,,,,,,Article; Maass; Boomer; Journal of the American Chemical Society; vol. 44; (1922); p. 1715;,https://www.reaxys.com/reaxys/secured/hopinto.do?context=C&query=CNR.CNR%3D559446&database=RX&origin=ReaxysOutput&ln=
,CN(C)Cl,1730823.0,https://www.reaxys.com/reaxys/secured/hopinto.do?context=S&query=IDE.XRN%3D1730823&database=RX&origin=ReaxysOutput&ln=,(970 of 4000),1585-74-6,dimethylchloroamine,(CH3)2NCl,C2H6ClN,79.5293,acyclic,,MAGVJLLHDZWQFM-UHFFFAOYSA-N,,,,Identification(51); Physical Data(25); Spectra(31),120.0,166.0,43,,,,,,"Article; Krannich; Sisler; Inorganic Chemistry; vol. 8; (1969); p. 1032,1033;",https://www.reaxys.com/reaxys/secured/hopinto.do?context=C&query=CNR.CNR%3D4165751&database=RX&origin=ReaxysOutput&ln=
,O.[Cu],8128137.0,https://www.reaxys.com/reaxys/secured/hopinto.do?context=S&query=IDE.XRN%3D8128137&database=RX&origin=ReaxysOutput&ln=,(971 of 4000),,copper(II) oxide; copper oxide; cupric oxide; copper(I) oxide; cuprous oxide; CuO; copper(ll) oxide; copper(l) oxide; cupper oxide; tenorite,Cu1.0O,CuO,79.5454,Solid solution; Glass or Ceramic material,,PTVDYARBVCBHSL-UHFFFAOYSA-N,,,,Identification(2796); Physical Data(1410); Spectra(228); Bioactivity(838),28302.0,16290.0,200,,,,,,"Article; Li, Yu; Gao, Lian-Xun; Han, Fu-She; Chemical Communications; vol. 48; 21; (2012); p. 2719 - 2721; (from Gmelin)",https://www.reaxys.com/reaxys/secured/hopinto.do?context=C&query=CNR.CNR%3D20095434&database=RX&origin=ReaxysOutput&ln=
,COB(F)F,1732739.0,https://www.reaxys.com/reaxys/secured/hopinto.do?context=S&query=IDE.XRN%3D1732739&database=RX&origin=ReaxysOutput&ln=,(972 of 4000),381-59-9,methyl difluoroborinate; Difluoromethoxyborat; Trifluoroboric acid methyl ester; difluoro-methoxy-borane; Borsaeure-methylester-difluorid,BF2(OCH3),CH3BF2O,79.842,acyclic,,MMOYZEVQTUZRGG-UHFFFAOYSA-N,,,,Identification(12); Physical Data(33); Spectra(25),42.0,51.0,41 - 42,,,,,,"Article; Sternbach, B.; Macdiarmid, A. G.; Journal of the American Chemical Society; vol. 83; (1961); p. 3384 - 3388;; ; Article; Gmelin Handbuch der Anorganischen Chemie; vol. B: B-Verb.9; 3.2, page 57 - 62; (from Gmelin)",https://www.reaxys.com/reaxys/secured/hopinto.do?context=C&query=CNR.CNR%3D7763960&database=RX&origin=ReaxysOutput&ln=
,O=[Ti]=O,11322494.0,https://www.reaxys.com/reaxys/secured/hopinto.do?context=S&query=IDE.XRN%3D11322494&database=RX&origin=ReaxysOutput&ln=,(973 of 4000),13463-67-7,titanium dioxide,OTiO,O2Ti,79.8788,Coordination compound,,GWEVSGVZZGPLCZ-UHFFFAOYSA-N,,,,Identification(933); Physical Data(29); Spectra(11); Bioactivity(50),9.0,1000.0,65 - 70,,,,,,"Patent; WALGREENS BOOTS ALLIANCE, INC.,; OREGON STATE BOARD OF HIGHER EDUCATION; US5817298; (1998); A;",https://www.reaxys.com/reaxys/secured/hopinto.do?context=C&query=CNR.CNR%3D102997&database=RX&origin=ReaxysOutput&ln=
,[Na+].[H][B-](C)(C)C,3977164.0,https://www.reaxys.com/reaxys/secured/hopinto.do?context=S&query=IDE.XRN%3D3977164&database=RX&origin=ReaxysOutput&ln=,(975 of 4000),,Natrium-trimethylboranat,Na(1+)*{BH(CH3)3}(1-)=Na{BH(CH3)3},C3H10B*Na,79.9132,acyclic; Coordination compound,,WNMOXWNSMGYPGF-UHFFFAOYSA-N,,,,Identification(5); Physical Data(3); Spectra(5),13.0,15.0,76,,,,,,"Article; Binger,P. et al.; Justus Liebigs Annalen der Chemie; vol. 717; (1968); p. 21 - 40;",https://www.reaxys.com/reaxys/secured/hopinto.do?context=C&query=CNR.CNR%3D78681&database=RX&origin=ReaxysOutput&ln=
,FCC(F)=O,1739050.0,https://www.reaxys.com/reaxys/secured/hopinto.do?context=S&query=IDE.XRN%3D1739050&database=RX&origin=ReaxysOutput&ln=,(978 of 4000),1514-42-7,Fluor-acetylfluorid,C2H2F2O,C2H2F2O,80.0341,acyclic,,LPGXUEOAYSYXNJ-UHFFFAOYSA-N,,,,Identification(13); Physical Data(19); Spectra(10),10.0,23.0,-83,,,,,,"Article; Holub; Bigelow; Journal of the American Chemical Society; vol. 72; (1950); p. 4879,4884;",https://www.reaxys.com/reaxys/secured/hopinto.do?context=C&query=CNR.CNR%3D1493921&database=RX&origin=ReaxysOutput&ln=